<?xml version="1.0" encoding="ISO-8859-1"?>
<modeling>
 <generator>
  <i name="program" type="string">vasp </i>
  <i name="version" type="string">5.2.12  </i>
  <i name="subversion" type="string">26May11 complex  parallel </i>
  <i name="platform" type="string">LinuxIFC </i>
  <i name="date" type="string">2016 11 21 </i>
  <i name="time" type="string">02:07:20 </i>
 </generator>
 <incar>
  <i type="string" name="PREC">accurate</i>
  <i type="int" name="IALGO">    38</i>
  <i type="logical" name="ADDGRID"> T  </i>
  <i type="int" name="IBRION">     8</i>
  <i name="EDIFF">      0.00000100</i>
  <i type="int" name="NSW">     1</i>
  <i name="ENCUT">    500.00000000</i>
  <i type="logical" name="LREAL"> F  </i>
  <i type="int" name="ISMEAR">     0</i>
  <i name="SIGMA">      0.10000000</i>
  <i type="logical" name="LWAVE"> F  </i>
  <i type="logical" name="LCHARG"> F  </i>
  <i type="logical" name="LPEAD"> F  </i>
  <i type="logical" name="LCALCPOL"> F  </i>
  <i type="logical" name="LCALCEPS"> F  </i>
  <v name="EFIELD_PEAD">      0.00000000      0.00000000      0.00000000</v>
  <i type="logical" name="LEFG"> F  </i>
  <v name="QUAD_EFG">      1.00000000      1.00000000</v>
  <i type="logical" name="LRHFATM"> F  </i>
  <i type="string" name="METAGGA">--</i>
  <i type="int" name="LMAXTAU">     0</i>
 </incar>
 <kpoints>
  <generation param="Gamma">
   <v type="int" name="divisions">       6        6        1 </v>
   <v name="usershift">      0.00000000       0.00000000       0.00000000 </v>
   <v name="genvec1">      0.16666667       0.00000000       0.00000000 </v>
   <v name="genvec2">      0.00000000       0.16666667       0.00000000 </v>
   <v name="genvec3">      0.00000000       0.00000000       1.00000000 </v>
   <v name="shift">      0.00000000       0.00000000       0.00000000 </v>
  </generation>
  <varray name="kpointlist" >
   <v>       0.00000000       0.00000000       0.00000000 </v>
   <v>       0.16666667       0.00000000       0.00000000 </v>
   <v>       0.33333333       0.00000000       0.00000000 </v>
   <v>       0.50000000       0.00000000       0.00000000 </v>
   <v>       0.00000000       0.16666667       0.00000000 </v>
   <v>       0.16666667       0.16666667       0.00000000 </v>
   <v>       0.33333333       0.16666667       0.00000000 </v>
   <v>       0.50000000       0.16666667       0.00000000 </v>
   <v>      -0.33333333       0.16666667       0.00000000 </v>
   <v>       0.00000000       0.33333333       0.00000000 </v>
   <v>       0.16666667       0.33333333       0.00000000 </v>
   <v>       0.33333333       0.33333333       0.00000000 </v>
   <v>       0.00000000       0.50000000       0.00000000 </v>
  </varray>
  <varray name="weights" >
   <v>       0.02777778 </v>
   <v>       0.11111111 </v>
   <v>       0.11111111 </v>
   <v>       0.05555556 </v>
   <v>       0.05555556 </v>
   <v>       0.11111111 </v>
   <v>       0.11111111 </v>
   <v>       0.11111111 </v>
   <v>       0.05555556 </v>
   <v>       0.05555556 </v>
   <v>       0.11111111 </v>
   <v>       0.05555556 </v>
   <v>       0.02777778 </v>
  </varray>
 </kpoints>
 <parameters>
  <separator name="general" >
   <i type="string" name="SYSTEM">unknown system</i>
   <i type="logical" name="LCOMPAT"> F  </i>
  </separator>
  <separator name="electronic" >
   <i type="string" name="PREC">accura</i>
   <i name="ENMAX">    500.00000000</i>
   <i name="ENAUG">    535.51400000</i>
   <i name="EDIFF">      0.00000100</i>
   <i type="int" name="IALGO">    38</i>
   <i type="int" name="IWAVPR">    11</i>
   <i type="int" name="NBANDS">   160</i>
   <i name="NELECT">    240.00000000</i>
   <i type="int" name="TURBO">     0</i>
   <i type="int" name="IRESTART">     0</i>
   <i type="int" name="NREBOOT">     0</i>
   <i type="int" name="NMIN">     0</i>
   <i name="EREF">      0.00000000</i>
   <separator name="electronic smearing" >
    <i type="int" name="ISMEAR">     0</i>
    <i name="SIGMA">      0.10000000</i>
    <i name="KSPACING">      0.50000000</i>
    <i type="logical" name="KGAMMA"> T  </i>
   </separator>
   <separator name="electronic projectors" >
    <i type="logical" name="LREAL"> F  </i>
    <v name="ROPT">      0.00000000      0.00000000</v>
    <i type="int" name="LMAXPAW">  -100</i>
    <i type="int" name="LMAXMIX">     2</i>
   </separator>
   <separator name="electronic startup" >
    <i type="int" name="ISTART">     0</i>
    <i type="int" name="ICHARG">     2</i>
    <i type="int" name="INIWAV">     1</i>
   </separator>
   <separator name="electronic spin" >
    <i type="int" name="ISPIN">     1</i>
    <i type="logical" name="LNONCOLLINEAR"> F  </i>
    <v name="MAGMOM">      1.00000000      1.00000000      1.00000000      1.00000000      1.00000000      1.00000000      1.00000000      1.00000000      1.00000000      1.00000000      1.00000000      1.00000000      1.00000000      1.00000000      1.00000000      1.00000000      1.00000000      1.00000000      1.00000000      1.00000000
      1.00000000      1.00000000      1.00000000      1.00000000      1.00000000      1.00000000      1.00000000      1.00000000      1.00000000      1.00000000      1.00000000      1.00000000      1.00000000      1.00000000      1.00000000      1.00000000      1.00000000      1.00000000      1.00000000      1.00000000
      1.00000000      1.00000000      1.00000000      1.00000000      1.00000000      1.00000000      1.00000000      1.00000000</v>
    <i name="NUPDOWN">     -1.00000000</i>
    <i type="logical" name="LSORBIT"> F  </i>
    <v name="SAXIS">      0.00000000      0.00000000      1.00000000</v>
    <i type="logical" name="LSPIRAL"> F  </i>
    <v name="QSPIRAL">      0.00000000      0.00000000      0.00000000</v>
    <i type="logical" name="LZEROZ"> F  </i>
   </separator>
   <separator name="electronic exchange-correlation" >
    <i type="logical" name="LASPH"> F  </i>
    <i type="logical" name="LMETAGGA"> F  </i>
   </separator>
   <separator name="electronic convergence" >
    <i type="int" name="NELM">    60</i>
    <i type="int" name="NELMDL">    -5</i>
    <i type="int" name="NELMIN">     2</i>
    <i name="ENINI">    500.00000000</i>
    <separator name="electronic convergence detail" >
     <i type="logical" name="LDIAG"> T  </i>
     <i type="logical" name="LSUBROT"> T  </i>
     <i name="WEIMIN">      0.00100000</i>
     <i name="EBREAK">      0.00000000</i>
     <i name="DEPER">      0.30000000</i>
     <i type="int" name="NRMM">     4</i>
     <i name="TIME">      0.40000000</i>
    </separator>
   </separator>
   <separator name="electronic mixer" >
    <i name="AMIX">      0.40000000</i>
    <i name="BMIX">      1.00000000</i>
    <i name="AMIN">      0.10000000</i>
    <i name="AMIX_MAG">      1.60000000</i>
    <i name="BMIX_MAG">      1.00000000</i>
    <separator name="electronic mixer details" >
     <i type="int" name="IMIX">     4</i>
     <i type="int" name="MAXMIX">   -45</i>
     <i name="WC">    100.00000000</i>
     <i type="int" name="INIMIX">     1</i>
     <i type="int" name="MIXPRE">     1</i>
     <i type="int" name="MREMOVE">     5</i>
    </separator>
   </separator>
   <separator name="electronic dipolcorrection" >
    <i type="logical" name="LDIPOL"> F  </i>
    <i type="logical" name="LMONO"> F  </i>
    <i type="int" name="IDIPOL">     0</i>
    <i name="EPSILON">      1.00000000</i>
    <v name="DIPOL">   -100.00000000   -100.00000000   -100.00000000</v>
    <i name="EFIELD">      0.00000000</i>
   </separator>
  </separator>
  <separator name="grids" >
   <i type="int" name="NGX">    96</i>
   <i type="int" name="NGY">    96</i>
   <i type="int" name="NGZ">   210</i>
   <i type="int" name="NGXF">   192</i>
   <i type="int" name="NGYF">   192</i>
   <i type="int" name="NGZF">   420</i>
   <i type="logical" name="ADDGRID"> T  </i>
  </separator>
  <separator name="ionic" >
   <i type="int" name="NSW">     1</i>
   <i type="int" name="IBRION">     8</i>
   <i type="int" name="ISIF">     2</i>
   <i name="PSTRESS">      0.00000000</i>
   <i name="EDIFFG">      0.00001000</i>
   <i type="int" name="NFREE">     0</i>
   <i name="POTIM">      0.50000000</i>
   <i name="SMASS">     -3.00000000</i>
   <i name="SCALEE">      1.00000000</i>
  </separator>
  <separator name="ionic md" >
   <i name="TEBEG">      0.00010000</i>
   <i name="TEEND">      0.00010000</i>
   <i type="int" name="NBLOCK">     1</i>
   <i type="int" name="KBLOCK">     1</i>
   <i type="int" name="NPACO">   256</i>
   <i name="APACO">     16.00000000</i>
  </separator>
  <separator name="symmetry" >
   <i type="int" name="ISYM">     2</i>
   <i name="SYMPREC">      0.00001000</i>
  </separator>
  <separator name="dos" >
   <i type="logical" name="LORBIT"> F  </i>
   <v name="RWIGS">     -1.00000000     -1.00000000</v>
   <i type="int" name="NEDOS">   301</i>
   <i name="EMIN">     10.00000000</i>
   <i name="EMAX">    -10.00000000</i>
   <i name="EFERMI">      0.00000000</i>
  </separator>
  <separator name="writing" >
   <i type="int" name="NWRITE">     2</i>
   <i type="logical" name="LWAVE"> F  </i>
   <i type="logical" name="LCHARG"> F  </i>
   <i type="logical" name="LPARD"> F  </i>
   <i type="logical" name="LVTOT"> F  </i>
   <i type="logical" name="LVHAR"> F  </i>
   <i type="logical" name="LELF"> F  </i>
   <i type="logical" name="LOPTICS"> F  </i>
   <v name="STM">      0.00000000      0.00000000      0.00000000      0.00000000      0.00000000      0.00000000      0.00000000</v>
  </separator>
  <separator name="performance" >
   <i type="int" name="NPAR">    16</i>
   <i type="int" name="NSIM">     4</i>
   <i type="int" name="NBLK">    -1</i>
   <i type="logical" name="LPLANE"> T  </i>
   <i type="logical" name="LSCALAPACK"> F  </i>
   <i type="logical" name="LSCAAWARE"> F  </i>
   <i type="logical" name="LSCALU"> F  </i>
   <i type="logical" name="LASYNC"> F  </i>
   <i type="logical" name="LORBITALREAL"> F  </i>
  </separator>
  <separator name="miscellaneous" >
   <i type="int" name="IDIOT">     3</i>
   <i type="logical" name="LMUSIC"> F  </i>
   <v name="POMASS">     10.81100000     95.94000000</v>
   <v name="DARWINR">      0.00000000      0.00000000</v>
   <v name="DARWINV">      1.00000000      1.00000000</v>
   <i type="logical" name="LCORR"> T  </i>
  </separator>
  <i type="logical" name="GGA_COMPAT"> T  </i>
  <i type="logical" name="LBERRY"> F  </i>
  <i type="int" name="ICORELEVEL">     0</i>
  <i type="logical" name="LDAU"> F  </i>
  <i type="int" name="I_CONSTRAINED_M">     0</i>
  <separator name="electronic exchange-correlation" >
   <i type="string" name="GGA">--</i>
   <i type="int" name="VOSKOWN">     0</i>
   <i type="logical" name="LHFCALC"> F  </i>
   <i type="string" name="PRECFOCK"></i>
   <i type="logical" name="LHFONE"> F  </i>
   <i type="logical" name="LRHFCALC"> F  </i>
   <i type="logical" name="LTHOMAS"> F  </i>
   <i type="logical" name="LMODELHF"> F  </i>
   <i name="ENCUT4O">     -1.00000000</i>
   <i type="int" name="EXXOEP">     0</i>
   <i type="int" name="FOURORBIT">     0</i>
   <i name="AEXX">      0.00000000</i>
   <i name="HFALPHA">      0.00000000</i>
   <i name="ALDAX">      1.00000000</i>
   <i name="AGGAX">      1.00000000</i>
   <i name="ALDAC">      1.00000000</i>
   <i name="AGGAC">      1.00000000</i>
   <i type="int" name="NKREDX">     1</i>
   <i type="int" name="NKREDY">     1</i>
   <i type="int" name="NKREDZ">     1</i>
   <i type="logical" name="SHIFTRED"> F  </i>
   <i type="logical" name="ODDONLY"> F  </i>
   <i type="logical" name="EVENONLY"> F  </i>
   <i type="int" name="LMAXFOCK">     0</i>
   <i type="int" name="NMAXFOCKAE">     0</i>
   <i type="logical" name="LFOCKAEDFT"> F  </i>
   <i name="HFSCREEN">      0.00000000</i>
   <i name="HFSCREENC">      0.00000000</i>
  </separator>
  <separator name="model GW" >
   <i type="int" name="MODEL_GW">     0</i>
   <i name="MODEL_EPS0">     46.95124306</i>
   <i name="MODEL_ALPHA">      1.00000000</i>
  </separator>
  <separator name="linear response parameters" >
   <i type="logical" name="LEPSILON"> F  </i>
   <i type="logical" name="LRPA"> F  </i>
   <i type="logical" name="LNABLA"> F  </i>
   <i type="logical" name="LVEL"> F  </i>
   <i type="int" name="KINTER">     0</i>
   <i name="CSHIFT">      0.10000000</i>
   <i name="OMEGAMAX">     -1.00000000</i>
  </separator>
  <separator name="orbital magnetization" >
   <i type="logical" name="NUCIND"> F  </i>
   <v name="MAGPOS">      0.00000000      0.00000000      0.00000000</v>
   <i type="logical" name="LNICSALL"> T  </i>
   <i type="logical" name="ORBITALMAG"> F  </i>
   <i type="logical" name="LMAGBLOCH"> F  </i>
   <i type="logical" name="LCHIMAG"> F  </i>
   <i type="logical" name="LGAUGE"> T  </i>
   <i type="int" name="MAGATOM">     0</i>
   <v name="MAGDIPOL">      0.00000000      0.00000000      0.00000000</v>
   <v name="AVECCONST">      0.00000000      0.00000000      0.00000000</v>
  </separator>
  <separator name="response functions" >
   <i type="logical" name="LADDER"> F  </i>
   <i type="logical" name="LHARTREE"> T  </i>
   <i type="int" name="IBSE">     0</i>
   <i type="logical" name="LTCTE"> F  </i>
   <i type="logical" name="LTETE"> F  </i>
   <i type="logical" name="L2ORDER"> F  </i>
   <i type="logical" name="LUSEW"> F  </i>
   <i name="ENCUTGW">     -2.00000000</i>
   <i name="ENCUTGWSOFT">     -2.00000000</i>
   <i name="ENCUTLF">     -1.00000000</i>
   <i type="int" name="LMAXMP2">    -1</i>
   <i name="SCISSOR">      0.00000000</i>
   <i type="int" name="NOMEGA">     0</i>
   <i type="int" name="NOMEGAR">     0</i>
   <i type="int" name="NBANDSGW">    -1</i>
   <i type="int" name="NBANDSO">    -1</i>
   <i type="int" name="NBANDSV">    -1</i>
   <i name="OPTEMAX">      0.00000000</i>
   <i type="int" name="NELM">     1</i>
   <i type="int" name="DIM">     3</i>
   <i type="int" name="ANTIRES">     0</i>
   <i name="OMEGAMAX">    -30.00000000</i>
   <i name="OMEGATL">   -200.00000000</i>
   <i type="int" name="OMEGAGRID">     0</i>
   <i name="CSHIFT">     -0.10000000</i>
   <i type="logical" name="SELFENERGY"> F  </i>
   <i type="logical" name="LSPECTRAL"> F  </i>
   <i type="logical" name="ODDONLYGW"> F  </i>
   <i type="logical" name="EVENONLYGW"> F  </i>
   <i type="int" name="NKREDLFX">     1</i>
   <i type="int" name="NKREDLFY">     1</i>
   <i type="int" name="NKREDLFZ">     1</i>
   <i type="int" name="MAXMEM">  1800</i>
   <i type="int" name="TELESCOPE">     0</i>
  </separator>
 </parameters>
 <atominfo>
  <atoms>      48 </atoms>
  <types>       2 </types>
  <array name="atoms" >
   <dimension dim="1">ion</dimension>
   <field type="string">element</field>
   <field type="int">atomtype</field>
   <set>
    <rc><c>B </c><c>   1</c></rc>
    <rc><c>B </c><c>   1</c></rc>
    <rc><c>B </c><c>   1</c></rc>
    <rc><c>B </c><c>   1</c></rc>
    <rc><c>B </c><c>   1</c></rc>
    <rc><c>B </c><c>   1</c></rc>
    <rc><c>B </c><c>   1</c></rc>
    <rc><c>B </c><c>   1</c></rc>
    <rc><c>B </c><c>   1</c></rc>
    <rc><c>B </c><c>   1</c></rc>
    <rc><c>B </c><c>   1</c></rc>
    <rc><c>B </c><c>   1</c></rc>
    <rc><c>B </c><c>   1</c></rc>
    <rc><c>B </c><c>   1</c></rc>
    <rc><c>B </c><c>   1</c></rc>
    <rc><c>B </c><c>   1</c></rc>
    <rc><c>Mo</c><c>   2</c></rc>
    <rc><c>Mo</c><c>   2</c></rc>
    <rc><c>Mo</c><c>   2</c></rc>
    <rc><c>Mo</c><c>   2</c></rc>
    <rc><c>Mo</c><c>   2</c></rc>
    <rc><c>Mo</c><c>   2</c></rc>
    <rc><c>Mo</c><c>   2</c></rc>
    <rc><c>Mo</c><c>   2</c></rc>
    <rc><c>Mo</c><c>   2</c></rc>
    <rc><c>Mo</c><c>   2</c></rc>
    <rc><c>Mo</c><c>   2</c></rc>
    <rc><c>Mo</c><c>   2</c></rc>
    <rc><c>Mo</c><c>   2</c></rc>
    <rc><c>Mo</c><c>   2</c></rc>
    <rc><c>Mo</c><c>   2</c></rc>
    <rc><c>Mo</c><c>   2</c></rc>
    <rc><c>Mo</c><c>   2</c></rc>
    <rc><c>Mo</c><c>   2</c></rc>
    <rc><c>Mo</c><c>   2</c></rc>
    <rc><c>Mo</c><c>   2</c></rc>
    <rc><c>Mo</c><c>   2</c></rc>
    <rc><c>Mo</c><c>   2</c></rc>
    <rc><c>Mo</c><c>   2</c></rc>
    <rc><c>Mo</c><c>   2</c></rc>
    <rc><c>Mo</c><c>   2</c></rc>
    <rc><c>Mo</c><c>   2</c></rc>
    <rc><c>Mo</c><c>   2</c></rc>
    <rc><c>Mo</c><c>   2</c></rc>
    <rc><c>Mo</c><c>   2</c></rc>
    <rc><c>Mo</c><c>   2</c></rc>
    <rc><c>Mo</c><c>   2</c></rc>
    <rc><c>Mo</c><c>   2</c></rc>
   </set>
  </array>
  <array name="atomtypes" >
   <dimension dim="1">type</dimension>
   <field type="int">atomspertype</field>
   <field type="string">element</field>
   <field>mass</field>
   <field>valence</field>
   <field type="string">pseudopotential</field>
   <set>
    <rc><c>  16</c><c>B </c><c>     10.81100000</c><c>      3.00000000</c><c>  PAW_PBE B 06Sep2000                   </c></rc>
    <rc><c>  32</c><c>Mo</c><c>     95.94000000</c><c>      6.00000000</c><c>  PAW_PBE Mo 08Apr2002                  </c></rc>
   </set>
  </array>
 </atominfo>
 <structure name="initialpos" >
  <crystal>
   <varray name="basis" >
    <v>      12.40974246       0.00000000       0.00000000 </v>
    <v>      -6.20487123      10.74707641       0.00015870 </v>
    <v>       0.00000000       0.00054326      28.16332823 </v>
   </varray>
   <i name="volume">   3756.09944448 </i>
   <varray name="rec_basis" >
    <v>       0.08058185       0.04652428      -0.00000090 </v>
    <v>       0.00000000       0.09304856      -0.00000179 </v>
    <v>       0.00000000      -0.00000052       0.03550717 </v>
   </varray>
  </crystal>
  <varray name="positions" >
   <v>       0.00000000       0.00000000       0.50000000 </v>
   <v>       0.25000000       0.00000000       0.50000000 </v>
   <v>       0.50000000       0.00000000       0.50000000 </v>
   <v>       0.75000000       0.00000000       0.50000000 </v>
   <v>       0.00000000       0.25000000       0.50000000 </v>
   <v>       0.25000000       0.25000000       0.50000000 </v>
   <v>       0.50000000       0.25000000       0.50000000 </v>
   <v>       0.75000000       0.25000000       0.50000000 </v>
   <v>       0.00000000       0.50000000       0.50000000 </v>
   <v>       0.25000000       0.50000000       0.50000000 </v>
   <v>       0.50000000       0.50000000       0.50000000 </v>
   <v>       0.75000000       0.50000000       0.50000000 </v>
   <v>       0.00000000       0.75000000       0.50000000 </v>
   <v>       0.25000000       0.75000000       0.50000000 </v>
   <v>       0.50000000       0.75000000       0.50000000 </v>
   <v>       0.75000000       0.75000000       0.50000000 </v>
   <v>       0.16666517       0.08333033       0.53996077 </v>
   <v>       0.41666517       0.08333033       0.53996077 </v>
   <v>       0.66666517       0.08333033       0.53996077 </v>
   <v>       0.91666517       0.08333033       0.53996077 </v>
   <v>       0.16666517       0.33333033       0.53996077 </v>
   <v>       0.41666517       0.33333033       0.53996077 </v>
   <v>       0.66666517       0.33333033       0.53996077 </v>
   <v>       0.91666517       0.33333033       0.53996077 </v>
   <v>       0.16666517       0.58333033       0.53996077 </v>
   <v>       0.41666517       0.58333033       0.53996077 </v>
   <v>       0.66666517       0.58333033       0.53996077 </v>
   <v>       0.91666517       0.58333033       0.53996077 </v>
   <v>       0.16666517       0.83333033       0.53996077 </v>
   <v>       0.41666517       0.83333033       0.53996077 </v>
   <v>       0.66666517       0.83333033       0.53996077 </v>
   <v>       0.91666517       0.83333033       0.53996077 </v>
   <v>       0.08333483       0.16666967       0.46003923 </v>
   <v>       0.33333483       0.16666967       0.46003923 </v>
   <v>       0.58333483       0.16666967       0.46003923 </v>
   <v>       0.83333483       0.16666967       0.46003923 </v>
   <v>       0.08333483       0.41666967       0.46003923 </v>
   <v>       0.33333483       0.41666967       0.46003923 </v>
   <v>       0.58333483       0.41666967       0.46003923 </v>
   <v>       0.83333483       0.41666967       0.46003923 </v>
   <v>       0.08333483       0.66666967       0.46003923 </v>
   <v>       0.33333483       0.66666967       0.46003923 </v>
   <v>       0.58333483       0.66666967       0.46003923 </v>
   <v>       0.83333483       0.66666967       0.46003923 </v>
   <v>       0.08333483       0.91666967       0.46003923 </v>
   <v>       0.33333483       0.91666967       0.46003923 </v>
   <v>       0.58333483       0.91666967       0.46003923 </v>
   <v>       0.83333483       0.91666967       0.46003923 </v>
  </varray>
 </structure>
 <calculation>
  <scstep>
   <time name="dav">  353.85  451.06</time>
   <time name="total">  361.13  461.45</time>
   <energy>
    <i name="alphaZ">    257.36090390 </i>
    <i name="ewald">  58787.65849917 </i>
    <i name="hartreedc"> -66005.33604242 </i>
    <i name="XCdc">  -1852.76122106 </i>
    <i name="pawpsdc">   9194.65570664 </i>
    <i name="pawaedc">  -6903.65309581 </i>
    <i name="eentropy">     -0.15272524 </i>
    <i name="bandstr">     63.58046763 </i>
    <i name="atom">   8099.21433824 </i>
    <i name="e_fr_energy">   1640.56683105 </i>
    <i name="e_wo_entrp">   1640.71955629 </i>
    <i name="e_0_energy">   1640.64319367 </i>
   </energy>
  </scstep>
  <scstep>
   <time name="dav">  510.60  645.95</time>
   <time name="total">  511.13  646.53</time>
   <energy>
    <i name="e_fr_energy">   -228.91229623 </i>
    <i name="e_wo_entrp">   -228.81553295 </i>
    <i name="e_0_energy">   -228.86391459 </i>
   </energy>
  </scstep>
  <scstep>
   <time name="dav">  404.82  510.06</time>
   <time name="total">  405.38  510.69</time>
   <energy>
    <i name="e_fr_energy">   -508.73234300 </i>
    <i name="e_wo_entrp">   -508.60243575 </i>
    <i name="e_0_energy">   -508.66738938 </i>
   </energy>
  </scstep>
  <scstep>
   <time name="dav">  490.60  639.29</time>
   <time name="total">  490.96  639.66</time>
   <energy>
    <i name="e_fr_energy">   -525.91992277 </i>
    <i name="e_wo_entrp">   -525.76033124 </i>
    <i name="e_0_energy">   -525.84012701 </i>
   </energy>
  </scstep>
  <scstep>
   <time name="dav">  472.32  648.66</time>
   <time name="total">  484.14  668.21</time>
   <energy>
    <i name="e_fr_energy">   -526.60984870 </i>
    <i name="e_wo_entrp">   -526.44449707 </i>
    <i name="e_0_energy">   -526.52717289 </i>
   </energy>
  </scstep>
  <scstep>
   <time name="dav">  294.37  506.12</time>
   <time name="total">  312.48  535.59</time>
   <energy>
    <i name="e_fr_energy">   -423.35034630 </i>
    <i name="e_wo_entrp">   -423.16368856 </i>
    <i name="e_0_energy">   -423.25701743 </i>
   </energy>
  </scstep>
  <scstep>
   <time name="dav">  417.39  606.98</time>
   <time name="total">  434.19  632.95</time>
   <energy>
    <i name="e_fr_energy">   -422.21105748 </i>
    <i name="e_wo_entrp">   -422.01857181 </i>
    <i name="e_0_energy">   -422.11481465 </i>
   </energy>
  </scstep>
  <scstep>
   <time name="dav">  410.77  597.22</time>
   <time name="total">  430.11  625.83</time>
   <energy>
    <i name="e_fr_energy">   -421.34689842 </i>
    <i name="e_wo_entrp">   -421.18448482 </i>
    <i name="e_0_energy">   -421.26569162 </i>
   </energy>
  </scstep>
  <scstep>
   <time name="dav">  548.40  619.90</time>
   <time name="total">  573.45  646.64</time>
   <energy>
    <i name="e_fr_energy">   -421.25933377 </i>
    <i name="e_wo_entrp">   -421.09196705 </i>
    <i name="e_0_energy">   -421.17565041 </i>
   </energy>
  </scstep>
  <scstep>
   <time name="dav">  443.00  538.90</time>
   <time name="total">  460.73  564.78</time>
   <energy>
    <i name="e_fr_energy">   -421.24942597 </i>
    <i name="e_wo_entrp">   -421.08311854 </i>
    <i name="e_0_energy">   -421.16627226 </i>
   </energy>
  </scstep>
  <scstep>
   <time name="dav">  484.70  573.60</time>
   <time name="total">  508.31  602.71</time>
   <energy>
    <i name="e_fr_energy">   -421.25133665 </i>
    <i name="e_wo_entrp">   -421.08932703 </i>
    <i name="e_0_energy">   -421.17033184 </i>
   </energy>
  </scstep>
  <scstep>
   <time name="dav">  494.69  536.54</time>
   <time name="total">  520.40  564.44</time>
   <energy>
    <i name="e_fr_energy">   -421.25543461 </i>
    <i name="e_wo_entrp">   -421.09673580 </i>
    <i name="e_0_energy">   -421.17608521 </i>
   </energy>
  </scstep>
  <scstep>
   <time name="dav">  528.92  593.71</time>
   <time name="total">  549.75  617.65</time>
   <energy>
    <i name="e_fr_energy">   -421.26010670 </i>
    <i name="e_wo_entrp">   -421.10135910 </i>
    <i name="e_0_energy">   -421.18073290 </i>
   </energy>
  </scstep>
  <scstep>
   <time name="dav">  450.71  497.16</time>
   <time name="total">  474.32  523.34</time>
   <energy>
    <i name="e_fr_energy">   -421.26699695 </i>
    <i name="e_wo_entrp">   -421.10792599 </i>
    <i name="e_0_energy">   -421.18746147 </i>
   </energy>
  </scstep>
  <scstep>
   <time name="dav">  457.16  502.86</time>
   <time name="total">  485.10  532.49</time>
   <energy>
    <i name="e_fr_energy">   -421.26990464 </i>
    <i name="e_wo_entrp">   -421.11152099 </i>
    <i name="e_0_energy">   -421.19071282 </i>
   </energy>
  </scstep>
  <scstep>
   <time name="dav">  477.86  534.45</time>
   <time name="total">  504.12  561.88</time>
   <energy>
    <i name="e_fr_energy">   -421.27144497 </i>
    <i name="e_wo_entrp">   -421.11312716 </i>
    <i name="e_0_energy">   -421.19228607 </i>
   </energy>
  </scstep>
  <scstep>
   <time name="dav">  461.41  534.42</time>
   <time name="total">  485.66  562.76</time>
   <energy>
    <i name="e_fr_energy">   -421.27227361 </i>
    <i name="e_wo_entrp">   -421.11385760 </i>
    <i name="e_0_energy">   -421.19306560 </i>
   </energy>
  </scstep>
  <scstep>
   <time name="dav">  343.24  533.23</time>
   <time name="total">  366.74  565.06</time>
   <energy>
    <i name="e_fr_energy">   -421.27272720 </i>
    <i name="e_wo_entrp">   -421.11428687 </i>
    <i name="e_0_energy">   -421.19350704 </i>
   </energy>
  </scstep>
  <scstep>
   <time name="dav">  381.50  502.96</time>
   <time name="total">  403.04  531.72</time>
   <energy>
    <i name="e_fr_energy">   -421.27295083 </i>
    <i name="e_wo_entrp">   -421.11455215 </i>
    <i name="e_0_energy">   -421.19375149 </i>
   </energy>
  </scstep>
  <scstep>
   <time name="dav">  324.07  433.80</time>
   <time name="total">  347.52  465.15</time>
   <energy>
    <i name="e_fr_energy">   -421.27310493 </i>
    <i name="e_wo_entrp">   -421.11474985 </i>
    <i name="e_0_energy">   -421.19392739 </i>
   </energy>
  </scstep>
  <scstep>
   <time name="dav">  341.12  453.83</time>
   <time name="total">  361.54  484.00</time>
   <energy>
    <i name="e_fr_energy">   -421.27313221 </i>
    <i name="e_wo_entrp">   -421.11475372 </i>
    <i name="e_0_energy">   -421.19394297 </i>
   </energy>
  </scstep>
  <scstep>
   <time name="dav">  296.08  394.80</time>
   <time name="total">  319.09  424.86</time>
   <energy>
    <i name="e_fr_energy">   -421.27315053 </i>
    <i name="e_wo_entrp">   -421.11474615 </i>
    <i name="e_0_energy">   -421.19394834 </i>
   </energy>
  </scstep>
  <scstep>
   <time name="dav">  272.68  378.89</time>
   <time name="total">  294.16  408.30</time>
   <energy>
    <i name="e_fr_energy">   -421.27315655 </i>
    <i name="e_wo_entrp">   -421.11476082 </i>
    <i name="e_0_energy">   -421.19395868 </i>
   </energy>
  </scstep>
  <scstep>
   <time name="dav">  260.12  344.05</time>
   <time name="total">  268.17  355.50</time>
   <energy>
    <i name="alphaZ">    257.36090390 </i>
    <i name="ewald">  58787.65849917 </i>
    <i name="hartreedc"> -66551.19629774 </i>
    <i name="XCdc">  -1830.46372392 </i>
    <i name="pawpsdc">  17693.30261239 </i>
    <i name="pawaedc"> -15448.55304221 </i>
    <i name="eentropy">     -0.15839337 </i>
    <i name="bandstr">  -1428.43805384 </i>
    <i name="atom">   8099.21433824 </i>
    <i name="e_fr_energy">   -421.27315739 </i>
    <i name="e_wo_entrp">   -421.11476401 </i>
    <i name="e_0_energy">   -421.19396070 </i>
   </energy>
  </scstep>
  <parameters_embedded>
   <separator name="dft+d2" >
    <i type="logical" name="LVDW"> F  </i>
   </separator>
  </parameters_embedded>
  <structure>
   <crystal>
    <varray name="basis" >
     <v>      12.40974246       0.00000000       0.00000000 </v>
     <v>      -6.20487123      10.74707641       0.00015870 </v>
     <v>       0.00000000       0.00054326      28.16332823 </v>
    </varray>
    <i name="volume">   3756.09944448 </i>
    <varray name="rec_basis" >
     <v>       0.08058185       0.04652428      -0.00000090 </v>
     <v>       0.00000000       0.09304856      -0.00000179 </v>
     <v>       0.00000000      -0.00000052       0.03550717 </v>
    </varray>
   </crystal>
   <varray name="positions" >
    <v>       0.00000000       0.00000000       0.50000000 </v>
    <v>       0.25000000       0.00000000       0.50000000 </v>
    <v>       0.50000000       0.00000000       0.50000000 </v>
    <v>       0.75000000       0.00000000       0.50000000 </v>
    <v>       0.00000000       0.25000000       0.50000000 </v>
    <v>       0.25000000       0.25000000       0.50000000 </v>
    <v>       0.50000000       0.25000000       0.50000000 </v>
    <v>       0.75000000       0.25000000       0.50000000 </v>
    <v>       0.00000000       0.50000000       0.50000000 </v>
    <v>       0.25000000       0.50000000       0.50000000 </v>
    <v>       0.50000000       0.50000000       0.50000000 </v>
    <v>       0.75000000       0.50000000       0.50000000 </v>
    <v>       0.00000000       0.75000000       0.50000000 </v>
    <v>       0.25000000       0.75000000       0.50000000 </v>
    <v>       0.50000000       0.75000000       0.50000000 </v>
    <v>       0.75000000       0.75000000       0.50000000 </v>
    <v>       0.16666517       0.08333033       0.53996077 </v>
    <v>       0.41666517       0.08333033       0.53996077 </v>
    <v>       0.66666517       0.08333033       0.53996077 </v>
    <v>       0.91666517       0.08333033       0.53996077 </v>
    <v>       0.16666517       0.33333033       0.53996077 </v>
    <v>       0.41666517       0.33333033       0.53996077 </v>
    <v>       0.66666517       0.33333033       0.53996077 </v>
    <v>       0.91666517       0.33333033       0.53996077 </v>
    <v>       0.16666517       0.58333033       0.53996077 </v>
    <v>       0.41666517       0.58333033       0.53996077 </v>
    <v>       0.66666517       0.58333033       0.53996077 </v>
    <v>       0.91666517       0.58333033       0.53996077 </v>
    <v>       0.16666517       0.83333033       0.53996077 </v>
    <v>       0.41666517       0.83333033       0.53996077 </v>
    <v>       0.66666517       0.83333033       0.53996077 </v>
    <v>       0.91666517       0.83333033       0.53996077 </v>
    <v>       0.08333483       0.16666967       0.46003923 </v>
    <v>       0.33333483       0.16666967       0.46003923 </v>
    <v>       0.58333483       0.16666967       0.46003923 </v>
    <v>       0.83333483       0.16666967       0.46003923 </v>
    <v>       0.08333483       0.41666967       0.46003923 </v>
    <v>       0.33333483       0.41666967       0.46003923 </v>
    <v>       0.58333483       0.41666967       0.46003923 </v>
    <v>       0.83333483       0.41666967       0.46003923 </v>
    <v>       0.08333483       0.66666967       0.46003923 </v>
    <v>       0.33333483       0.66666967       0.46003923 </v>
    <v>       0.58333483       0.66666967       0.46003923 </v>
    <v>       0.83333483       0.66666967       0.46003923 </v>
    <v>       0.08333483       0.91666967       0.46003923 </v>
    <v>       0.33333483       0.91666967       0.46003923 </v>
    <v>       0.58333483       0.91666967       0.46003923 </v>
    <v>       0.83333483       0.91666967       0.46003923 </v>
   </varray>
  </structure>
  <varray name="forces" >
   <v>       0.00000000      -0.00000000       0.00000000 </v>
   <v>      -0.00000000      -0.00000000       0.00000000 </v>
   <v>       0.00000000       0.00000000       0.00000000 </v>
   <v>      -0.00000000       0.00000000      -0.00000000 </v>
   <v>       0.00000000      -0.00000000       0.00000000 </v>
   <v>      -0.00000000      -0.00000000       0.00000000 </v>
   <v>      -0.00000000       0.00000000      -0.00000000 </v>
   <v>      -0.00000000      -0.00000000      -0.00000000 </v>
   <v>      -0.00000000      -0.00000000       0.00000000 </v>
   <v>      -0.00000000      -0.00000000       0.00000000 </v>
   <v>      -0.00000000       0.00000000       0.00000000 </v>
   <v>      -0.00000000       0.00000000      -0.00000000 </v>
   <v>      -0.00000000      -0.00000000      -0.00000000 </v>
   <v>      -0.00000000      -0.00000000      -0.00000000 </v>
   <v>       0.00000000       0.00000000      -0.00000000 </v>
   <v>      -0.00000000      -0.00000000      -0.00000000 </v>
   <v>       0.00000000      -0.00013046       0.02076667 </v>
   <v>       0.00000000      -0.00013046       0.02076667 </v>
   <v>       0.00000000      -0.00013046       0.02076667 </v>
   <v>       0.00000000      -0.00013046       0.02076667 </v>
   <v>       0.00000000      -0.00013046       0.02076667 </v>
   <v>       0.00000000      -0.00013046       0.02076667 </v>
   <v>       0.00000000      -0.00013046       0.02076667 </v>
   <v>       0.00000000      -0.00013046       0.02076667 </v>
   <v>       0.00000000      -0.00013046       0.02076667 </v>
   <v>       0.00000000      -0.00013046       0.02076667 </v>
   <v>       0.00000000      -0.00013046       0.02076667 </v>
   <v>       0.00000000      -0.00013046       0.02076667 </v>
   <v>       0.00000000      -0.00013046       0.02076667 </v>
   <v>       0.00000000      -0.00013046       0.02076667 </v>
   <v>       0.00000000      -0.00013046       0.02076667 </v>
   <v>       0.00000000      -0.00013046       0.02076667 </v>
   <v>      -0.00000000       0.00013046      -0.02076667 </v>
   <v>      -0.00000000       0.00013046      -0.02076667 </v>
   <v>      -0.00000000       0.00013046      -0.02076667 </v>
   <v>      -0.00000000       0.00013046      -0.02076667 </v>
   <v>      -0.00000000       0.00013046      -0.02076667 </v>
   <v>      -0.00000000       0.00013046      -0.02076667 </v>
   <v>      -0.00000000       0.00013046      -0.02076667 </v>
   <v>      -0.00000000       0.00013046      -0.02076667 </v>
   <v>      -0.00000000       0.00013046      -0.02076667 </v>
   <v>      -0.00000000       0.00013046      -0.02076667 </v>
   <v>      -0.00000000       0.00013046      -0.02076667 </v>
   <v>      -0.00000000       0.00013046      -0.02076667 </v>
   <v>      -0.00000000       0.00013046      -0.02076667 </v>
   <v>      -0.00000000       0.00013046      -0.02076667 </v>
   <v>      -0.00000000       0.00013046      -0.02076667 </v>
   <v>      -0.00000000       0.00013046      -0.02076667 </v>
  </varray>
  <varray name="stress" >
   <v>      -0.10585040       0.00000000       0.00000000 </v>
   <v>       0.00000000      -0.10123446      -0.00207049 </v>
   <v>       0.00000000      -0.00207796       0.18322386 </v>
  </varray>
  <energy>
   <i name="e_fr_energy">   -421.27315739 </i>
   <i name="e_wo_entrp">   -421.19396070 </i>
   <i name="e_0_energy">     -0.15839337 </i>
  </energy>
  <kpoints>
   <generation param="Gamma">
    <v type="int" name="divisions">       6        6        1 </v>
    <v name="usershift">      0.00000000       0.00000000       0.00000000 </v>
    <v name="genvec1">      0.16666667       0.00000000       0.00000000 </v>
    <v name="genvec2">      0.00000000       0.16666667       0.00000000 </v>
    <v name="genvec3">      0.00000000       0.00000000       1.00000000 </v>
    <v name="shift">      0.00000000       0.00000000       0.00000000 </v>
   </generation>
   <varray name="kpointlist" >
    <v>       0.00000000       0.00000000       0.00000000 </v>
    <v>       0.16666667       0.00000000       0.00000000 </v>
    <v>       0.33333333       0.00000000       0.00000000 </v>
    <v>       0.50000000       0.00000000       0.00000000 </v>
    <v>       0.00000000       0.16666667       0.00000000 </v>
    <v>       0.16666667       0.16666667       0.00000000 </v>
    <v>       0.33333333       0.16666667       0.00000000 </v>
    <v>       0.50000000       0.16666667       0.00000000 </v>
    <v>      -0.33333333       0.16666667       0.00000000 </v>
    <v>       0.00000000       0.33333333       0.00000000 </v>
    <v>       0.16666667       0.33333333       0.00000000 </v>
    <v>       0.33333333       0.33333333       0.00000000 </v>
    <v>       0.00000000       0.50000000       0.00000000 </v>
   </varray>
   <varray name="weights" >
    <v>       0.02777778 </v>
    <v>       0.11111111 </v>
    <v>       0.11111111 </v>
    <v>       0.05555556 </v>
    <v>       0.05555556 </v>
    <v>       0.11111111 </v>
    <v>       0.11111111 </v>
    <v>       0.11111111 </v>
    <v>       0.05555556 </v>
    <v>       0.05555556 </v>
    <v>       0.11111111 </v>
    <v>       0.05555556 </v>
    <v>       0.02777778 </v>
   </varray>
  </kpoints>
  <scstep>
   <time name="total">  586.65  744.30</time>
   <energy>
    <i name="e_fr_energy">   -114.63070842 </i>
    <i name="e_wo_entrp">   -114.63070841 </i>
    <i name="e_0_energy">   -114.63070842 </i>
   </energy>
  </scstep>
  <scstep>
   <time name="total">  407.30  549.89</time>
   <energy>
    <i name="e_fr_energy">   -115.61143657 </i>
    <i name="e_wo_entrp">   -115.61143529 </i>
    <i name="e_0_energy">   -115.61143593 </i>
   </energy>
  </scstep>
  <scstep>
   <time name="total">  425.66  544.81</time>
   <energy>
    <i name="e_fr_energy">   -115.69088416 </i>
    <i name="e_wo_entrp">   -115.69088235 </i>
    <i name="e_0_energy">   -115.69088326 </i>
   </energy>
  </scstep>
  <scstep>
   <time name="total">  388.10  547.15</time>
   <energy>
    <i name="e_fr_energy">   -111.31259295 </i>
    <i name="e_wo_entrp">   -111.31259243 </i>
    <i name="e_0_energy">   -111.31259269 </i>
   </energy>
  </scstep>
  <scstep>
   <time name="total">  394.09  641.61</time>
   <energy>
    <i name="e_fr_energy">   -111.27989513 </i>
    <i name="e_wo_entrp">   -111.27989245 </i>
    <i name="e_0_energy">   -111.27989379 </i>
   </energy>
  </scstep>
  <scstep>
   <time name="total">  365.86  598.87</time>
   <energy>
    <i name="e_fr_energy">   -110.18013178 </i>
    <i name="e_wo_entrp">   -110.18012968 </i>
    <i name="e_0_energy">   -110.18013073 </i>
   </energy>
  </scstep>
  <scstep>
   <time name="total">  387.39  644.45</time>
   <energy>
    <i name="e_fr_energy">   -110.22383955 </i>
    <i name="e_wo_entrp">   -110.22383904 </i>
    <i name="e_0_energy">   -110.22383929 </i>
   </energy>
  </scstep>
  <scstep>
   <time name="total">  405.27  661.03</time>
   <energy>
    <i name="e_fr_energy">   -110.23747908 </i>
    <i name="e_wo_entrp">   -110.23747778 </i>
    <i name="e_0_energy">   -110.23747843 </i>
   </energy>
  </scstep>
  <scstep>
   <time name="total">  382.34  632.42</time>
   <energy>
    <i name="e_fr_energy">   -110.25721468 </i>
    <i name="e_wo_entrp">   -110.25721175 </i>
    <i name="e_0_energy">   -110.25721322 </i>
   </energy>
  </scstep>
  <scstep>
   <time name="total">  592.25  661.45</time>
   <energy>
    <i name="e_fr_energy">   -110.26291805 </i>
    <i name="e_wo_entrp">   -110.26291515 </i>
    <i name="e_0_energy">   -110.26291660 </i>
   </energy>
  </scstep>
  <scstep>
   <time name="total">  563.95  630.37</time>
   <energy>
    <i name="e_fr_energy">   -110.26525324 </i>
    <i name="e_wo_entrp">   -110.26525052 </i>
    <i name="e_0_energy">   -110.26525188 </i>
   </energy>
  </scstep>
  <kpoints>
   <generation param="Gamma">
    <v type="int" name="divisions">       6        6        1 </v>
    <v name="usershift">      0.00000000       0.00000000       0.00000000 </v>
    <v name="genvec1">      0.16666667       0.00000000       0.00000000 </v>
    <v name="genvec2">      0.00000000       0.16666667       0.00000000 </v>
    <v name="genvec3">      0.00000000       0.00000000       1.00000000 </v>
    <v name="shift">      0.00000000       0.00000000       0.00000000 </v>
   </generation>
   <varray name="kpointlist" >
    <v>       0.00000000       0.00000000       0.00000000 </v>
    <v>       0.16666667       0.00000000       0.00000000 </v>
    <v>       0.33333333       0.00000000       0.00000000 </v>
    <v>       0.50000000       0.00000000       0.00000000 </v>
    <v>       0.00000000       0.16666667       0.00000000 </v>
    <v>       0.16666667       0.16666667       0.00000000 </v>
    <v>       0.33333333       0.16666667       0.00000000 </v>
    <v>       0.50000000       0.16666667       0.00000000 </v>
    <v>      -0.33333333       0.16666667       0.00000000 </v>
    <v>       0.00000000       0.33333333       0.00000000 </v>
    <v>       0.16666667       0.33333333       0.00000000 </v>
    <v>       0.33333333       0.33333333       0.00000000 </v>
    <v>       0.00000000       0.50000000       0.00000000 </v>
   </varray>
   <varray name="weights" >
    <v>       0.02777778 </v>
    <v>       0.11111111 </v>
    <v>       0.11111111 </v>
    <v>       0.05555556 </v>
    <v>       0.05555556 </v>
    <v>       0.11111111 </v>
    <v>       0.11111111 </v>
    <v>       0.11111111 </v>
    <v>       0.05555556 </v>
    <v>       0.05555556 </v>
    <v>       0.11111111 </v>
    <v>       0.05555556 </v>
    <v>       0.02777778 </v>
   </varray>
  </kpoints>
  <scstep>
   <time name="total">  736.84  800.89</time>
   <energy>
    <i name="e_fr_energy">   -115.22811438 </i>
    <i name="e_wo_entrp">   -115.22811438 </i>
    <i name="e_0_energy">   -115.22811438 </i>
   </energy>
  </scstep>
  <scstep>
   <time name="total">  462.15  580.93</time>
   <energy>
    <i name="e_fr_energy">   -115.62626218 </i>
    <i name="e_wo_entrp">   -115.62626075 </i>
    <i name="e_0_energy">   -115.62626146 </i>
   </energy>
  </scstep>
  <scstep>
   <time name="total">  395.82  629.78</time>
   <energy>
    <i name="e_fr_energy">   -115.71693969 </i>
    <i name="e_wo_entrp">   -115.71693274 </i>
    <i name="e_0_energy">   -115.71693621 </i>
   </energy>
  </scstep>
  <scstep>
   <time name="total">  369.24  594.31</time>
   <energy>
    <i name="e_fr_energy">   -111.31482578 </i>
    <i name="e_wo_entrp">   -111.31482265 </i>
    <i name="e_0_energy">   -111.31482421 </i>
   </energy>
  </scstep>
  <scstep>
   <time name="total">  414.11  651.35</time>
   <energy>
    <i name="e_fr_energy">   -111.28884347 </i>
    <i name="e_wo_entrp">   -111.28883768 </i>
    <i name="e_0_energy">   -111.28884058 </i>
   </energy>
  </scstep>
  <scstep>
   <time name="total">  363.89  603.02</time>
   <energy>
    <i name="e_fr_energy">   -110.18076746 </i>
    <i name="e_wo_entrp">   -110.18076216 </i>
    <i name="e_0_energy">   -110.18076481 </i>
   </energy>
  </scstep>
  <scstep>
   <time name="total">  396.10  656.54</time>
   <energy>
    <i name="e_fr_energy">   -110.22492995 </i>
    <i name="e_wo_entrp">   -110.22492208 </i>
    <i name="e_0_energy">   -110.22492601 </i>
   </energy>
  </scstep>
  <scstep>
   <time name="total">  538.70  653.54</time>
   <energy>
    <i name="e_fr_energy">   -110.23826532 </i>
    <i name="e_wo_entrp">   -110.23825715 </i>
    <i name="e_0_energy">   -110.23826123 </i>
   </energy>
  </scstep>
  <scstep>
   <time name="total">  598.08  631.04</time>
   <energy>
    <i name="e_fr_energy">   -110.25817842 </i>
    <i name="e_wo_entrp">   -110.25817116 </i>
    <i name="e_0_energy">   -110.25817479 </i>
   </energy>
  </scstep>
  <scstep>
   <time name="total">  638.84  668.66</time>
   <energy>
    <i name="e_fr_energy">   -110.26354818 </i>
    <i name="e_wo_entrp">   -110.26354077 </i>
    <i name="e_0_energy">   -110.26354447 </i>
   </energy>
  </scstep>
  <scstep>
   <time name="total">  610.42  642.52</time>
   <energy>
    <i name="e_fr_energy">   -110.26620612 </i>
    <i name="e_wo_entrp">   -110.26619869 </i>
    <i name="e_0_energy">   -110.26620240 </i>
   </energy>
  </scstep>
  <scstep>
   <time name="total">  661.71  699.05</time>
   <energy>
    <i name="e_fr_energy">   -110.26722519 </i>
    <i name="e_wo_entrp">   -110.26721777 </i>
    <i name="e_0_energy">   -110.26722148 </i>
   </energy>
  </scstep>
  <kpoints>
   <generation param="Gamma">
    <v type="int" name="divisions">       6        6        1 </v>
    <v name="usershift">      0.00000000       0.00000000       0.00000000 </v>
    <v name="genvec1">      0.16666667       0.00000000       0.00000000 </v>
    <v name="genvec2">      0.00000000       0.16666667       0.00000000 </v>
    <v name="genvec3">      0.00000000       0.00000000       1.00000000 </v>
    <v name="shift">      0.00000000       0.00000000       0.00000000 </v>
   </generation>
   <varray name="kpointlist" >
    <v>       0.00000000       0.00000000       0.00000000 </v>
    <v>       0.16666667       0.00000000       0.00000000 </v>
    <v>       0.33333333       0.00000000       0.00000000 </v>
    <v>       0.50000000       0.00000000       0.00000000 </v>
    <v>       0.00000000       0.16666667       0.00000000 </v>
    <v>       0.16666667       0.16666667       0.00000000 </v>
    <v>       0.33333333       0.16666667       0.00000000 </v>
    <v>       0.50000000       0.16666667       0.00000000 </v>
    <v>      -0.33333333       0.16666667       0.00000000 </v>
    <v>       0.00000000       0.33333333       0.00000000 </v>
    <v>       0.16666667       0.33333333       0.00000000 </v>
    <v>       0.33333333       0.33333333       0.00000000 </v>
    <v>       0.00000000       0.50000000       0.00000000 </v>
   </varray>
   <varray name="weights" >
    <v>       0.02777778 </v>
    <v>       0.11111111 </v>
    <v>       0.11111111 </v>
    <v>       0.05555556 </v>
    <v>       0.05555556 </v>
    <v>       0.11111111 </v>
    <v>       0.11111111 </v>
    <v>       0.11111111 </v>
    <v>       0.05555556 </v>
    <v>       0.05555556 </v>
    <v>       0.11111111 </v>
    <v>       0.05555556 </v>
    <v>       0.02777778 </v>
   </varray>
  </kpoints>
  <scstep>
   <time name="total">  475.86  809.30</time>
   <energy>
    <i name="e_fr_energy">   -112.13445758 </i>
    <i name="e_wo_entrp">   -112.13445758 </i>
    <i name="e_0_energy">   -112.13445758 </i>
   </energy>
  </scstep>
  <scstep>
   <time name="total">  357.49  623.10</time>
   <energy>
    <i name="e_fr_energy">   -114.35639237 </i>
    <i name="e_wo_entrp">   -114.35639211 </i>
    <i name="e_0_energy">   -114.35639224 </i>
   </energy>
  </scstep>
  <scstep>
   <time name="total">  362.42  616.65</time>
   <energy>
    <i name="e_fr_energy">   -115.84407397 </i>
    <i name="e_wo_entrp">   -115.84407151 </i>
    <i name="e_0_energy">   -115.84407274 </i>
   </energy>
  </scstep>
  <scstep>
   <time name="total">  361.23  587.25</time>
   <energy>
    <i name="e_fr_energy">   -110.54590014 </i>
    <i name="e_wo_entrp">   -110.54589677 </i>
    <i name="e_0_energy">   -110.54589845 </i>
   </energy>
  </scstep>
  <scstep>
   <time name="total">  527.08  620.57</time>
   <energy>
    <i name="e_fr_energy">   -111.69094887 </i>
    <i name="e_wo_entrp">   -111.69095064 </i>
    <i name="e_0_energy">   -111.69094975 </i>
   </energy>
  </scstep>
  <scstep>
   <time name="total">  571.95  592.37</time>
   <energy>
    <i name="e_fr_energy">   -109.27085396 </i>
    <i name="e_wo_entrp">   -109.27085691 </i>
    <i name="e_0_energy">   -109.27085543 </i>
   </energy>
  </scstep>
  <scstep>
   <time name="total">  642.66  669.05</time>
   <energy>
    <i name="e_fr_energy">   -109.31668230 </i>
    <i name="e_wo_entrp">   -109.31668343 </i>
    <i name="e_0_energy">   -109.31668286 </i>
   </energy>
  </scstep>
  <scstep>
   <time name="total">  640.68  663.98</time>
   <energy>
    <i name="e_fr_energy">   -109.32154176 </i>
    <i name="e_wo_entrp">   -109.32154215 </i>
    <i name="e_0_energy">   -109.32154196 </i>
   </energy>
  </scstep>
  <scstep>
   <time name="total">  617.08  632.22</time>
   <energy>
    <i name="e_fr_energy">   -109.35126539 </i>
    <i name="e_wo_entrp">   -109.35126655 </i>
    <i name="e_0_energy">   -109.35126597 </i>
   </energy>
  </scstep>
  <scstep>
   <time name="total">  597.15  634.65</time>
   <energy>
    <i name="e_fr_energy">   -109.36709962 </i>
    <i name="e_wo_entrp">   -109.36710104 </i>
    <i name="e_0_energy">   -109.36710033 </i>
   </energy>
  </scstep>
  <scstep>
   <time name="total">  386.43  641.09</time>
   <energy>
    <i name="e_fr_energy">   -109.37276858 </i>
    <i name="e_wo_entrp">   -109.37276960 </i>
    <i name="e_0_energy">   -109.37276909 </i>
   </energy>
  </scstep>
  <scstep>
   <time name="total">  432.39  693.78</time>
   <energy>
    <i name="e_fr_energy">   -109.37348468 </i>
    <i name="e_wo_entrp">   -109.37348580 </i>
    <i name="e_0_energy">   -109.37348524 </i>
   </energy>
  </scstep>
  <kpoints>
   <generation param="Gamma">
    <v type="int" name="divisions">       6        6        1 </v>
    <v name="usershift">      0.00000000       0.00000000       0.00000000 </v>
    <v name="genvec1">      0.16666667       0.00000000       0.00000000 </v>
    <v name="genvec2">      0.00000000       0.16666667       0.00000000 </v>
    <v name="genvec3">      0.00000000       0.00000000       1.00000000 </v>
    <v name="shift">      0.00000000       0.00000000       0.00000000 </v>
   </generation>
   <varray name="kpointlist" >
    <v>       0.00000000       0.00000000       0.00000000 </v>
    <v>       0.16666667       0.00000000       0.00000000 </v>
    <v>       0.33333333       0.00000000       0.00000000 </v>
    <v>       0.50000000       0.00000000       0.00000000 </v>
    <v>       0.00000000       0.16666667       0.00000000 </v>
    <v>       0.16666667       0.16666667       0.00000000 </v>
    <v>       0.33333333       0.16666667       0.00000000 </v>
    <v>       0.50000000       0.16666667       0.00000000 </v>
    <v>      -0.33333333       0.16666667       0.00000000 </v>
    <v>      -0.16666667       0.16666667       0.00000000 </v>
    <v>       0.00000000       0.33333333       0.00000000 </v>
    <v>       0.16666667       0.33333333       0.00000000 </v>
    <v>       0.33333333       0.33333333       0.00000000 </v>
    <v>       0.50000000       0.33333333       0.00000000 </v>
    <v>      -0.33333333       0.33333333       0.00000000 </v>
    <v>      -0.16666667       0.33333333       0.00000000 </v>
    <v>       0.00000000       0.50000000       0.00000000 </v>
    <v>       0.16666667       0.50000000       0.00000000 </v>
    <v>       0.33333333       0.50000000       0.00000000 </v>
    <v>       0.50000000       0.50000000       0.00000000 </v>
   </varray>
   <varray name="weights" >
    <v>       0.02777778 </v>
    <v>       0.05555556 </v>
    <v>       0.05555556 </v>
    <v>       0.02777778 </v>
    <v>       0.05555556 </v>
    <v>       0.05555556 </v>
    <v>       0.05555556 </v>
    <v>       0.05555556 </v>
    <v>       0.05555556 </v>
    <v>       0.05555556 </v>
    <v>       0.05555556 </v>
    <v>       0.05555556 </v>
    <v>       0.05555556 </v>
    <v>       0.05555556 </v>
    <v>       0.05555556 </v>
    <v>       0.05555556 </v>
    <v>       0.02777778 </v>
    <v>       0.05555556 </v>
    <v>       0.05555556 </v>
    <v>       0.02777778 </v>
   </varray>
  </kpoints>
  <scstep>
   <time name="total">  718.15  822.57</time>
   <energy>
    <i name="e_fr_energy">   -345.45253315 </i>
    <i name="e_wo_entrp">   -345.45253319 </i>
    <i name="e_0_energy">   -345.45253317 </i>
   </energy>
  </scstep>
  <scstep>
   <time name="total">  860.58  897.75</time>
   <energy>
    <i name="e_fr_energy">   -332.71328777 </i>
    <i name="e_wo_entrp">   -332.71328623 </i>
    <i name="e_0_energy">   -332.71328700 </i>
   </energy>
  </scstep>
  <scstep>
   <time name="total">  921.69 1002.75</time>
   <energy>
    <i name="e_fr_energy">   -332.79457465 </i>
    <i name="e_wo_entrp">   -332.79457862 </i>
    <i name="e_0_energy">   -332.79457663 </i>
   </energy>
  </scstep>
  <scstep>
   <time name="total">  860.73  954.95</time>
   <energy>
    <i name="e_fr_energy">   -331.85958168 </i>
    <i name="e_wo_entrp">   -331.85958315 </i>
    <i name="e_0_energy">   -331.85958241 </i>
   </energy>
  </scstep>
  <scstep>
   <time name="total">  770.23  914.73</time>
   <energy>
    <i name="e_fr_energy">   -331.39226123 </i>
    <i name="e_wo_entrp">   -331.39226017 </i>
    <i name="e_0_energy">   -331.39226070 </i>
   </energy>
  </scstep>
  <scstep>
   <time name="total">  569.35  911.18</time>
   <energy>
    <i name="e_fr_energy">   -331.16662453 </i>
    <i name="e_wo_entrp">   -331.16662256 </i>
    <i name="e_0_energy">   -331.16662355 </i>
   </energy>
  </scstep>
  <scstep>
   <time name="total">  583.80  972.89</time>
   <energy>
    <i name="e_fr_energy">   -331.14028738 </i>
    <i name="e_wo_entrp">   -331.14028578 </i>
    <i name="e_0_energy">   -331.14028658 </i>
   </energy>
  </scstep>
  <scstep>
   <time name="total">  602.64  985.25</time>
   <energy>
    <i name="e_fr_energy">   -331.13296187 </i>
    <i name="e_wo_entrp">   -331.13296020 </i>
    <i name="e_0_energy">   -331.13296104 </i>
   </energy>
  </scstep>
  <scstep>
   <time name="total">  684.94  918.28</time>
   <energy>
    <i name="e_fr_energy">   -331.11951907 </i>
    <i name="e_wo_entrp">   -331.11951694 </i>
    <i name="e_0_energy">   -331.11951801 </i>
   </energy>
  </scstep>
  <scstep>
   <time name="total">  944.91  990.21</time>
   <energy>
    <i name="e_fr_energy">   -331.11682251 </i>
    <i name="e_wo_entrp">   -331.11682031 </i>
    <i name="e_0_energy">   -331.11682141 </i>
   </energy>
  </scstep>
  <scstep>
   <time name="total">  918.53  967.90</time>
   <energy>
    <i name="e_fr_energy">   -331.11531743 </i>
    <i name="e_wo_entrp">   -331.11531529 </i>
    <i name="e_0_energy">   -331.11531636 </i>
   </energy>
  </scstep>
  <kpoints>
   <generation param="Gamma">
    <v type="int" name="divisions">       6        6        1 </v>
    <v name="usershift">      0.00000000       0.00000000       0.00000000 </v>
    <v name="genvec1">      0.16666667       0.00000000       0.00000000 </v>
    <v name="genvec2">      0.00000000       0.16666667       0.00000000 </v>
    <v name="genvec3">      0.00000000       0.00000000       1.00000000 </v>
    <v name="shift">      0.00000000       0.00000000       0.00000000 </v>
   </generation>
   <varray name="kpointlist" >
    <v>       0.00000000       0.00000000       0.00000000 </v>
    <v>       0.16666667       0.00000000       0.00000000 </v>
    <v>       0.33333333       0.00000000       0.00000000 </v>
    <v>       0.50000000       0.00000000       0.00000000 </v>
    <v>       0.00000000       0.16666667       0.00000000 </v>
    <v>       0.16666667       0.16666667       0.00000000 </v>
    <v>       0.33333333       0.16666667       0.00000000 </v>
    <v>       0.50000000       0.16666667       0.00000000 </v>
    <v>      -0.33333333       0.16666667       0.00000000 </v>
    <v>      -0.16666667       0.16666667       0.00000000 </v>
    <v>       0.00000000       0.33333333       0.00000000 </v>
    <v>       0.16666667       0.33333333       0.00000000 </v>
    <v>       0.33333333       0.33333333       0.00000000 </v>
    <v>       0.50000000       0.33333333       0.00000000 </v>
    <v>      -0.33333333       0.33333333       0.00000000 </v>
    <v>      -0.16666667       0.33333333       0.00000000 </v>
    <v>       0.00000000       0.50000000       0.00000000 </v>
    <v>       0.16666667       0.50000000       0.00000000 </v>
    <v>       0.33333333       0.50000000       0.00000000 </v>
    <v>       0.50000000       0.50000000       0.00000000 </v>
   </varray>
   <varray name="weights" >
    <v>       0.02777778 </v>
    <v>       0.05555556 </v>
    <v>       0.05555556 </v>
    <v>       0.02777778 </v>
    <v>       0.05555556 </v>
    <v>       0.05555556 </v>
    <v>       0.05555556 </v>
    <v>       0.05555556 </v>
    <v>       0.05555556 </v>
    <v>       0.05555556 </v>
    <v>       0.05555556 </v>
    <v>       0.05555556 </v>
    <v>       0.05555556 </v>
    <v>       0.05555556 </v>
    <v>       0.05555556 </v>
    <v>       0.05555556 </v>
    <v>       0.02777778 </v>
    <v>       0.05555556 </v>
    <v>       0.05555556 </v>
    <v>       0.02777778 </v>
   </varray>
  </kpoints>
  <scstep>
   <time name="total">  571.15  910.27</time>
   <energy>
    <i name="e_fr_energy">   -345.35322159 </i>
    <i name="e_wo_entrp">   -345.35321955 </i>
    <i name="e_0_energy">   -345.35322057 </i>
   </energy>
  </scstep>
  <scstep>
   <time name="total">  546.82  879.88</time>
   <energy>
    <i name="e_fr_energy">   -332.71854802 </i>
    <i name="e_wo_entrp">   -332.71854442 </i>
    <i name="e_0_energy">   -332.71854622 </i>
   </energy>
  </scstep>
  <scstep>
   <time name="total">  598.68  965.27</time>
   <energy>
    <i name="e_fr_energy">   -332.80121768 </i>
    <i name="e_wo_entrp">   -332.80121173 </i>
    <i name="e_0_energy">   -332.80121470 </i>
   </energy>
  </scstep>
  <scstep>
   <time name="total">  857.58  932.52</time>
   <energy>
    <i name="e_fr_energy">   -331.85744852 </i>
    <i name="e_wo_entrp">   -331.85744823 </i>
    <i name="e_0_energy">   -331.85744837 </i>
   </energy>
  </scstep>
  <scstep>
   <time name="total">  891.38  946.16</time>
   <energy>
    <i name="e_fr_energy">   -331.39751742 </i>
    <i name="e_wo_entrp">   -331.39752129 </i>
    <i name="e_0_energy">   -331.39751936 </i>
   </energy>
  </scstep>
  <scstep>
   <time name="total">  881.78  931.62</time>
   <energy>
    <i name="e_fr_energy">   -331.16738187 </i>
    <i name="e_wo_entrp">   -331.16738245 </i>
    <i name="e_0_energy">   -331.16738216 </i>
   </energy>
  </scstep>
  <scstep>
   <time name="total">  906.29  959.88</time>
   <energy>
    <i name="e_fr_energy">   -331.14197411 </i>
    <i name="e_wo_entrp">   -331.14196954 </i>
    <i name="e_0_energy">   -331.14197182 </i>
   </energy>
  </scstep>
  <scstep>
   <time name="total">  601.53  962.73</time>
   <energy>
    <i name="e_fr_energy">   -331.13435837 </i>
    <i name="e_wo_entrp">   -331.13435343 </i>
    <i name="e_0_energy">   -331.13435590 </i>
   </energy>
  </scstep>
  <scstep>
   <time name="total">  604.14  945.07</time>
   <energy>
    <i name="e_fr_energy">   -331.12155818 </i>
    <i name="e_wo_entrp">   -331.12155517 </i>
    <i name="e_0_energy">   -331.12155667 </i>
   </energy>
  </scstep>
  <scstep>
   <time name="total">  625.55  967.24</time>
   <energy>
    <i name="e_fr_energy">   -331.11870440 </i>
    <i name="e_wo_entrp">   -331.11870213 </i>
    <i name="e_0_energy">   -331.11870327 </i>
   </energy>
  </scstep>
  <scstep>
   <time name="total">  694.63  939.73</time>
   <energy>
    <i name="e_fr_energy">   -331.11689401 </i>
    <i name="e_wo_entrp">   -331.11689273 </i>
    <i name="e_0_energy">   -331.11689337 </i>
   </energy>
  </scstep>
  <kpoints>
   <generation param="Gamma">
    <v type="int" name="divisions">       6        6        1 </v>
    <v name="usershift">      0.00000000       0.00000000       0.00000000 </v>
    <v name="genvec1">      0.16666667       0.00000000       0.00000000 </v>
    <v name="genvec2">      0.00000000       0.16666667       0.00000000 </v>
    <v name="genvec3">      0.00000000       0.00000000       1.00000000 </v>
    <v name="shift">      0.00000000       0.00000000       0.00000000 </v>
   </generation>
   <varray name="kpointlist" >
    <v>       0.00000000       0.00000000       0.00000000 </v>
    <v>       0.16666667       0.00000000       0.00000000 </v>
    <v>       0.33333333       0.00000000       0.00000000 </v>
    <v>       0.50000000       0.00000000       0.00000000 </v>
    <v>       0.00000000       0.16666667       0.00000000 </v>
    <v>       0.16666667       0.16666667       0.00000000 </v>
    <v>       0.33333333       0.16666667       0.00000000 </v>
    <v>       0.50000000       0.16666667       0.00000000 </v>
    <v>      -0.33333333       0.16666667       0.00000000 </v>
    <v>      -0.16666667       0.16666667       0.00000000 </v>
    <v>       0.00000000       0.33333333       0.00000000 </v>
    <v>       0.16666667       0.33333333       0.00000000 </v>
    <v>       0.33333333       0.33333333       0.00000000 </v>
    <v>       0.50000000       0.33333333       0.00000000 </v>
    <v>      -0.33333333       0.33333333       0.00000000 </v>
    <v>      -0.16666667       0.33333333       0.00000000 </v>
    <v>       0.00000000       0.50000000       0.00000000 </v>
    <v>       0.16666667       0.50000000       0.00000000 </v>
    <v>       0.33333333       0.50000000       0.00000000 </v>
    <v>       0.50000000       0.50000000       0.00000000 </v>
   </varray>
   <varray name="weights" >
    <v>       0.02777778 </v>
    <v>       0.05555556 </v>
    <v>       0.05555556 </v>
    <v>       0.02777778 </v>
    <v>       0.05555556 </v>
    <v>       0.05555556 </v>
    <v>       0.05555556 </v>
    <v>       0.05555556 </v>
    <v>       0.05555556 </v>
    <v>       0.05555556 </v>
    <v>       0.05555556 </v>
    <v>       0.05555556 </v>
    <v>       0.05555556 </v>
    <v>       0.05555556 </v>
    <v>       0.05555556 </v>
    <v>       0.05555556 </v>
    <v>       0.02777778 </v>
    <v>       0.05555556 </v>
    <v>       0.05555556 </v>
    <v>       0.02777778 </v>
   </varray>
  </kpoints>
  <scstep>
   <time name="total">  867.64  924.08</time>
   <energy>
    <i name="e_fr_energy">   -334.60218128 </i>
    <i name="e_wo_entrp">   -334.59574598 </i>
    <i name="e_0_energy">   -334.59896363 </i>
   </energy>
  </scstep>
  <scstep>
   <time name="total">  641.55  874.70</time>
   <energy>
    <i name="e_fr_energy">   -319.48444158 </i>
    <i name="e_wo_entrp">   -319.47800513 </i>
    <i name="e_0_energy">   -319.48122336 </i>
   </energy>
  </scstep>
  <scstep>
   <time name="total">  627.60  971.37</time>
   <energy>
    <i name="e_fr_energy">   -320.15282638 </i>
    <i name="e_wo_entrp">   -320.13052190 </i>
    <i name="e_0_energy">   -320.14167414 </i>
   </energy>
  </scstep>
  <scstep>
   <time name="total">  606.41  946.48</time>
   <energy>
    <i name="e_fr_energy">   -321.22002398 </i>
    <i name="e_wo_entrp">   -321.19717013 </i>
    <i name="e_0_energy">   -321.20859706 </i>
   </energy>
  </scstep>
  <scstep>
   <time name="total">  570.91  893.57</time>
   <energy>
    <i name="e_fr_energy">   -319.06574989 </i>
    <i name="e_wo_entrp">   -319.04168537 </i>
    <i name="e_0_energy">   -319.05371763 </i>
   </energy>
  </scstep>
  <scstep>
   <time name="total">  786.26  913.53</time>
   <energy>
    <i name="e_fr_energy">   -318.74121286 </i>
    <i name="e_wo_entrp">   -318.71731444 </i>
    <i name="e_0_energy">   -318.72926365 </i>
   </energy>
  </scstep>
  <scstep>
   <time name="total">  947.11 1004.51</time>
   <energy>
    <i name="e_fr_energy">   -318.81965695 </i>
    <i name="e_wo_entrp">   -318.79624224 </i>
    <i name="e_0_energy">   -318.80794959 </i>
   </energy>
  </scstep>
  <scstep>
   <time name="total">  949.92  987.17</time>
   <energy>
    <i name="e_fr_energy">   -318.79817639 </i>
    <i name="e_wo_entrp">   -318.77483496 </i>
    <i name="e_0_energy">   -318.78650568 </i>
   </energy>
  </scstep>
  <scstep>
   <time name="total">  909.66  962.38</time>
   <energy>
    <i name="e_fr_energy">   -318.78513066 </i>
    <i name="e_wo_entrp">   -318.76182906 </i>
    <i name="e_0_energy">   -318.77347986 </i>
   </energy>
  </scstep>
  <scstep>
   <time name="total">  584.31  930.04</time>
   <energy>
    <i name="e_fr_energy">   -318.78559171 </i>
    <i name="e_wo_entrp">   -318.76231057 </i>
    <i name="e_0_energy">   -318.77395114 </i>
   </energy>
  </scstep>
  <kpoints>
   <generation param="Gamma">
    <v type="int" name="divisions">       6        6        1 </v>
    <v name="usershift">      0.00000000       0.00000000       0.00000000 </v>
    <v name="genvec1">      0.16666667       0.00000000       0.00000000 </v>
    <v name="genvec2">      0.00000000       0.16666667       0.00000000 </v>
    <v name="genvec3">      0.00000000       0.00000000       1.00000000 </v>
    <v name="shift">      0.00000000       0.00000000       0.00000000 </v>
   </generation>
   <varray name="kpointlist" >
    <v>       0.00000000       0.00000000       0.00000000 </v>
    <v>       0.16666667       0.00000000       0.00000000 </v>
    <v>       0.33333333       0.00000000       0.00000000 </v>
    <v>       0.50000000       0.00000000       0.00000000 </v>
    <v>       0.00000000       0.16666667       0.00000000 </v>
    <v>       0.16666667       0.16666667       0.00000000 </v>
    <v>       0.33333333       0.16666667       0.00000000 </v>
    <v>       0.50000000       0.16666667       0.00000000 </v>
    <v>      -0.33333333       0.16666667       0.00000000 </v>
    <v>       0.00000000       0.33333333       0.00000000 </v>
    <v>       0.16666667       0.33333333       0.00000000 </v>
    <v>       0.33333333       0.33333333       0.00000000 </v>
    <v>       0.00000000       0.50000000       0.00000000 </v>
   </varray>
   <varray name="weights" >
    <v>       0.02777778 </v>
    <v>       0.11111111 </v>
    <v>       0.11111111 </v>
    <v>       0.05555556 </v>
    <v>       0.05555556 </v>
    <v>       0.11111111 </v>
    <v>       0.11111111 </v>
    <v>       0.11111111 </v>
    <v>       0.05555556 </v>
    <v>       0.05555556 </v>
    <v>       0.11111111 </v>
    <v>       0.05555556 </v>
    <v>       0.02777778 </v>
   </varray>
  </kpoints>
  <dynmat>
   <varray name="hessian" >
    <v>      -1.87550807       0.00000000      -0.00000000       0.01134574      -0.00000000      -0.00000000      -0.01375970       0.00000000       0.00000000       0.01134574      -0.00000000      -0.00000000      -0.00187453      -0.00769382       0.00074080      -0.00187453       0.00769382      -0.00074080       0.00217822       0.00145309       0.00457273       0.00217822      -0.00145309      -0.00457273      -0.00744545       0.00376785      -0.00142493      -0.00014360      -0.00000000       0.00000000      -0.00744545      -0.00376785       0.00142493      -0.00014360      -0.00000000       0.00000000      -0.00187453      -0.00769382       0.00074080       0.00217822      -0.00145309      -0.00457273       0.00217822       0.00145309       0.00457273      -0.00187453       0.00769382      -0.00074080       0.15059789       0.09622565       0.13376590       0.00851346       0.00120374      -0.00020449       0.00851346      -0.00120374       0.00020449       0.15059789      -0.09622565      -0.13376590       0.00048503       0.00000000       0.00000000       0.00389603       0.00581158      -0.00216259      -0.00258569       0.00000000       0.00000000       0.00389603      -0.00581158       0.00216259      -0.00069923       0.00006627      -0.00108401      -0.00069923      -0.00006627       0.00108401       0.00007436       0.00176343      -0.00192329       0.00007436      -0.00176343       0.00192329       0.00505908      -0.00252888       0.00319672      -0.00093325      -0.00000000      -0.00000000       0.00505908       0.00252888      -0.00319672      -0.01617567      -0.00000000       0.00000000      -0.01617567      -0.00000000       0.00000000       0.00505908       0.00252888      -0.00319672      -0.00093325      -0.00000000      -0.00000000       0.00505908      -0.00252888       0.00319672       0.00007436      -0.00176343       0.00192329       0.00007436       0.00176343      -0.00192329      -0.00069923      -0.00006627       0.00108401      -0.00069923       0.00006627      -0.00108401       0.00389603      -0.00581158       0.00216259      -0.00258569      -0.00000000       0.00000000       0.00389603       0.00581158      -0.00216259       0.00048503       0.00000000       0.00000000       0.15059789      -0.09622565      -0.13376590       0.00851346      -0.00120374       0.00020449       0.00851346       0.00120374      -0.00020449       0.15059789       0.09622565       0.13376590 </v>
    <v>       0.00000000      -1.87755884       0.00001569      -0.00000000      -0.00627518      -0.00084153       0.00000000      -0.00488893       0.00172352      -0.00000000      -0.00627518      -0.00084153      -0.00769382       0.00693525       0.00044847       0.00769382       0.00693525       0.00044847       0.00145309       0.00045366       0.00263314      -0.00145309       0.00045366       0.00263314       0.00376785      -0.01144595      -0.00088187      -0.00000000       0.00306502      -0.00528698      -0.00376785      -0.01144595      -0.00088187      -0.00000000       0.00306502      -0.00528698      -0.00769382       0.00693525       0.00044847      -0.00145309       0.00045366       0.00263314       0.00145309       0.00045366       0.00263314       0.00769382       0.00693525       0.00044847       0.09620836       0.03944291       0.07716521       0.00315859      -0.00025803      -0.00244952      -0.00315859      -0.00025803      -0.00244952      -0.09620836       0.03944291       0.07716521       0.00000000       0.00649810       0.00369572       0.00390601       0.00443835       0.00103861      -0.00000000      -0.00252464       0.00000285      -0.00390601       0.00443835       0.00103861       0.00008077      -0.00076655      -0.00060759      -0.00008077      -0.00076655      -0.00060759       0.00367497       0.00827231       0.00139039      -0.00367497       0.00827231       0.00139039      -0.00259133       0.00205481      -0.00183408       0.00000000      -0.00062604       0.00136589       0.00259133       0.00205481      -0.00183408      -0.00000000       0.20610439      -0.15446370      -0.00000000       0.20610439      -0.15446370       0.00259133       0.00205481      -0.00183408       0.00000000      -0.00062604       0.00136589      -0.00259133       0.00205481      -0.00183408      -0.00367497       0.00827231       0.00139039       0.00367497       0.00827231       0.00139039      -0.00008077      -0.00076655      -0.00060759       0.00008077      -0.00076655      -0.00060759      -0.00390601       0.00443835       0.00103861      -0.00000000      -0.00252464       0.00000285       0.00390601       0.00443835       0.00103861       0.00000000       0.00649810       0.00369572      -0.09620836       0.03944291       0.07716521      -0.00315859      -0.00025803      -0.00244952       0.00315859      -0.00025803      -0.00244952       0.09620836       0.03944291       0.07716521 </v>
    <v>      -0.00000000       0.00001569      -1.52112741      -0.00000000      -0.00084153      -0.00436558       0.00000000       0.00172352       0.00584752      -0.00000000      -0.00084153      -0.00436558       0.00074080       0.00044847      -0.00437170      -0.00074080       0.00044847      -0.00437170       0.00457273       0.00263314       0.00184599      -0.00457273       0.00263314       0.00184599      -0.00142493      -0.00088187       0.00584082       0.00000000      -0.00528698       0.00185165       0.00142493      -0.00088187       0.00584082       0.00000000      -0.00528698       0.00185165       0.00074080       0.00044847      -0.00437170      -0.00457273       0.00263314       0.00184599       0.00457273       0.00263314       0.00184599      -0.00074080       0.00044847      -0.00437170       0.13378984       0.07720681       0.08742396       0.00533497      -0.00312373      -0.00396511      -0.00533497      -0.00312373      -0.00396511      -0.13378984       0.07720681       0.08742396       0.00000000       0.00332976       0.00674269       0.00000834       0.00619897      -0.00395270       0.00000000      -0.00001270       0.00066632      -0.00000834       0.00619897      -0.00395270       0.00021297       0.00013598      -0.00124466      -0.00021297       0.00013598      -0.00124466      -0.00535278      -0.00306282      -0.00394865       0.00535278      -0.00306282      -0.00394865       0.00282195      -0.00163452       0.00674265      -0.00000000      -0.00023778      -0.00127890      -0.00282195      -0.00163452       0.00674265       0.00000000      -0.15447124       0.08746011       0.00000000      -0.15447124       0.08746011      -0.00282195      -0.00163452       0.00674265      -0.00000000      -0.00023778      -0.00127890       0.00282195      -0.00163452       0.00674265       0.00535278      -0.00306282      -0.00394865      -0.00535278      -0.00306282      -0.00394865      -0.00021297       0.00013598      -0.00124466       0.00021297       0.00013598      -0.00124466      -0.00000834       0.00619897      -0.00395270       0.00000000      -0.00001270       0.00066632       0.00000834       0.00619897      -0.00395270       0.00000000       0.00332976       0.00674269      -0.13378984       0.07720681       0.08742396      -0.00533497      -0.00312373      -0.00396511       0.00533497      -0.00312373      -0.00396511       0.13378984       0.07720681       0.08742396 </v>
    <v>       0.01134574      -0.00000000      -0.00000000      -1.87550807       0.00000000      -0.00000000       0.01134574      -0.00000000      -0.00000000      -0.01375970       0.00000000       0.00000000       0.00217822      -0.00145309      -0.00457273      -0.00187453      -0.00769382       0.00074080      -0.00187453       0.00769382      -0.00074080       0.00217822       0.00145309       0.00457273      -0.00014360      -0.00000000       0.00000000      -0.00744545       0.00376785      -0.00142493      -0.00014360      -0.00000000       0.00000000      -0.00744545      -0.00376785       0.00142493      -0.00187453       0.00769382      -0.00074080      -0.00187453      -0.00769382       0.00074080       0.00217822      -0.00145309      -0.00457273       0.00217822       0.00145309       0.00457273       0.15059789      -0.09622565      -0.13376590       0.15059789       0.09622565       0.13376590       0.00851346       0.00120374      -0.00020449       0.00851346      -0.00120374       0.00020449       0.00389603      -0.00581158       0.00216259       0.00048503       0.00000000       0.00000000       0.00389603       0.00581158      -0.00216259      -0.00258569       0.00000000       0.00000000       0.00007436      -0.00176343       0.00192329      -0.00069923       0.00006627      -0.00108401      -0.00069923      -0.00006627       0.00108401       0.00007436       0.00176343      -0.00192329      -0.01617567      -0.00000000       0.00000000       0.00505908      -0.00252888       0.00319672      -0.00093325      -0.00000000      -0.00000000       0.00505908       0.00252888      -0.00319672       0.00505908      -0.00252888       0.00319672      -0.01617567      -0.00000000       0.00000000       0.00505908       0.00252888      -0.00319672      -0.00093325      -0.00000000      -0.00000000      -0.00069923       0.00006627      -0.00108401       0.00007436      -0.00176343       0.00192329       0.00007436       0.00176343      -0.00192329      -0.00069923      -0.00006627       0.00108401       0.00048503       0.00000000       0.00000000       0.00389603      -0.00581158       0.00216259      -0.00258569      -0.00000000       0.00000000       0.00389603       0.00581158      -0.00216259       0.15059789       0.09622565       0.13376590       0.15059789      -0.09622565      -0.13376590       0.00851346      -0.00120374       0.00020449       0.00851346       0.00120374      -0.00020449 </v>
    <v>      -0.00000000      -0.00627518      -0.00084153       0.00000000      -1.87755884       0.00001569      -0.00000000      -0.00627518      -0.00084153       0.00000000      -0.00488893       0.00172352      -0.00145309       0.00045366       0.00263314      -0.00769382       0.00693525       0.00044847       0.00769382       0.00693525       0.00044847       0.00145309       0.00045366       0.00263314      -0.00000000       0.00306502      -0.00528698       0.00376785      -0.01144595      -0.00088187      -0.00000000       0.00306502      -0.00528698      -0.00376785      -0.01144595      -0.00088187       0.00769382       0.00693525       0.00044847      -0.00769382       0.00693525       0.00044847      -0.00145309       0.00045366       0.00263314       0.00145309       0.00045366       0.00263314      -0.09620836       0.03944291       0.07716521       0.09620836       0.03944291       0.07716521       0.00315859      -0.00025803      -0.00244952      -0.00315859      -0.00025803      -0.00244952      -0.00390601       0.00443835       0.00103861       0.00000000       0.00649810       0.00369572       0.00390601       0.00443835       0.00103861      -0.00000000      -0.00252464       0.00000285      -0.00367497       0.00827231       0.00139039       0.00008077      -0.00076655      -0.00060759      -0.00008077      -0.00076655      -0.00060759       0.00367497       0.00827231       0.00139039      -0.00000000       0.20610439      -0.15446370      -0.00259133       0.00205481      -0.00183408       0.00000000      -0.00062604       0.00136589       0.00259133       0.00205481      -0.00183408      -0.00259133       0.00205481      -0.00183408      -0.00000000       0.20610439      -0.15446370       0.00259133       0.00205481      -0.00183408       0.00000000      -0.00062604       0.00136589       0.00008077      -0.00076655      -0.00060759      -0.00367497       0.00827231       0.00139039       0.00367497       0.00827231       0.00139039      -0.00008077      -0.00076655      -0.00060759       0.00000000       0.00649810       0.00369572      -0.00390601       0.00443835       0.00103861      -0.00000000      -0.00252464       0.00000285       0.00390601       0.00443835       0.00103861       0.09620836       0.03944291       0.07716521      -0.09620836       0.03944291       0.07716521      -0.00315859      -0.00025803      -0.00244952       0.00315859      -0.00025803      -0.00244952 </v>
[...]
       <r>   -2.0488    0.0000 </r>
       <r>   -2.0488    0.0000 </r>
       <r>   -2.0488    0.0000 </r>
       <r>   -2.0488    0.0000 </r>
       <r>   -1.9132    0.0000 </r>
       <r>   -1.9132    0.0000 </r>
       <r>   -1.8552    0.0000 </r>
       <r>   -1.8552    0.0000 </r>
       <r>   -1.8552    0.0000 </r>
       <r>   -1.8552    0.0000 </r>
       <r>   -1.7420    0.0000 </r>
       <r>   -1.7420    0.0000 </r>
       <r>   -1.7109    0.0000 </r>
       <r>   -1.7109    0.0000 </r>
       <r>   -1.4514    0.0000 </r>
       <r>   -1.4514    0.0000 </r>
       <r>   -1.4514    0.0000 </r>
       <r>   -1.4514    0.0000 </r>
       <r>   -1.4155    0.0000 </r>
       <r>   -1.4155    0.0000 </r>
       <r>   -1.1664    0.0000 </r>
       <r>   -1.1664    0.0000 </r>
       <r>   -1.1606    0.0000 </r>
       <r>   -1.1605    0.0000 </r>
       <r>   -1.1604    0.0000 </r>
       <r>   -1.1604    0.0000 </r>
       <r>   -1.0024    0.0000 </r>
       <r>   -0.9863    0.0000 </r>
      </set>
     </set>
    </set>
   </array>
  </eigenvalues>
  <separator name="orbital magnetization" >
   <v name="MAGDIPOLOUT">      0.00000000      0.00000000      0.00000000</v>
  </separator>
  <dos>
   <i name="efermi">     -2.59722102 </i>
   <total>
    <array>
     <dimension dim="1">gridpoints</dimension>
     <dimension dim="2">spin</dimension>
     <field>energy</field>
     <field>total</field>
     <field>integrated</field>
     <set>
      <set comment="spin 1">
       <r>   -12.6974     0.0000     0.0000 </r>
       <r>   -12.6548     0.0000     0.0000 </r>
       <r>   -12.6122     0.0000     0.0000 </r>
       <r>   -12.5696     0.0000     0.0000 </r>
       <r>   -12.5270     0.0000     0.0000 </r>
       <r>   -12.4844     0.0000     0.0000 </r>
       <r>   -12.4418     0.0000     0.0000 </r>
       <r>   -12.3992     0.0000     0.0000 </r>
       <r>   -12.3566     0.0000     0.0000 </r>
       <r>   -12.3140     0.0000     0.0000 </r>
       <r>   -12.2714     0.0000     0.0000 </r>
       <r>   -12.2288     0.0000     0.0000 </r>
       <r>   -12.1862     0.0000     0.0000 </r>
       <r>   -12.1436     0.0000     0.0000 </r>
       <r>   -12.1010     0.0000     0.0000 </r>
       <r>   -12.0584     0.0000     0.0000 </r>
       <r>   -12.0158     0.0000     0.0000 </r>
       <r>   -11.9732     0.0001     0.0000 </r>
       <r>   -11.9306     0.0013     0.0001 </r>
       <r>   -11.8880     0.0107     0.0005 </r>
       <r>   -11.8454     0.0625     0.0032 </r>
       <r>   -11.8028     0.2651     0.0145 </r>
       <r>   -11.7602     0.8274     0.0497 </r>
       <r>   -11.7176     1.9392     0.1323 </r>
       <r>   -11.6750     3.5107     0.2819 </r>
       <r>   -11.6324     5.1021     0.4993 </r>
       <r>   -11.5897     6.2719     0.7665 </r>
       <r>   -11.5471     6.9571     1.0628 </r>
       <r>   -11.5045     7.3434     1.3757 </r>
       <r>   -11.4619     7.5367     1.6968 </r>
       <r>   -11.4193     7.6833     2.0241 </r>
       <r>   -11.3767     7.9912     2.3645 </r>
       <r>   -11.3341     8.3035     2.7183 </r>
       <r>   -11.2915     8.3798     3.0753 </r>
       <r>   -11.2489     8.5417     3.4392 </r>
       <r>   -11.2063     9.0820     3.8261 </r>
       <r>   -11.1637     9.5469     4.2328 </r>
       <r>   -11.1211     9.6015     4.6419 </r>
       <r>   -11.0785     9.8078     5.0597 </r>
       <r>   -11.0359    10.5730     5.5101 </r>
       <r>   -10.9933    11.2985     5.9915 </r>
       <r>   -10.9507    11.5320     6.4828 </r>
       <r>   -10.9081    11.9024     6.9898 </r>
       <r>   -10.8655    12.9283     7.5406 </r>
       <r>   -10.8229    14.0256     8.1381 </r>
       <r>   -10.7803    14.7498     8.7665 </r>
       <r>   -10.7377    15.7415     9.4371 </r>
       <r>   -10.6951    17.4379    10.1800 </r>
       <r>   -10.6525    19.3927    11.0062 </r>
       <r>   -10.6099    21.6378    11.9280 </r>
       <r>   -10.5673    25.0281    12.9943 </r>
       <r>   -10.5247    30.1899    14.2804 </r>
       <r>   -10.4821    37.4598    15.8763 </r>
       <r>   -10.4395    46.4071    17.8534 </r>
       <r>   -10.3969    54.4356    20.1725 </r>
       <r>   -10.3543    58.0154    22.6440 </r>
       <r>   -10.3117    55.9655    25.0283 </r>
       <r>   -10.2691    49.9834    27.1577 </r>
       <r>   -10.2265    41.9022    28.9428 </r>
       <r>   -10.1839    32.1464    30.3124 </r>
       <r>   -10.1413    21.3168    31.2205 </r>
       <r>   -10.0987    11.5096    31.7108 </r>
       <r>   -10.0561     4.8324    31.9167 </r>
       <r>   -10.0135     1.5291    31.9818 </r>
       <r>    -9.9709     0.3572    31.9971 </r>
       <r>    -9.9283     0.0607    31.9997 </r>
       <r>    -9.8857     0.0075    32.0000 </r>
       <r>    -9.8431     0.0007    32.0000 </r>
       <r>    -9.8005     0.0000    32.0000 </r>
       <r>    -9.7578     0.0000    32.0000 </r>
       <r>    -9.7152     0.0000    32.0000 </r>
       <r>    -9.6726     0.0000    32.0000 </r>
       <r>    -9.6300     0.0000    32.0000 </r>
       <r>    -9.5874     0.0000    32.0000 </r>
       <r>    -9.5448     0.0000    32.0000 </r>
       <r>    -9.5022     0.0000    32.0000 </r>
       <r>    -9.4596     0.0000    32.0000 </r>
       <r>    -9.4170     0.0000    32.0000 </r>
       <r>    -9.3744     0.0000    32.0000 </r>
       <r>    -9.3318     0.0000    32.0000 </r>
       <r>    -9.2892     0.0000    32.0000 </r>
       <r>    -9.2466     0.0000    32.0000 </r>
       <r>    -9.2040     0.0000    32.0000 </r>
       <r>    -9.1614     0.0000    32.0000 </r>
       <r>    -9.1188     0.0000    32.0000 </r>
       <r>    -9.0762     0.0000    32.0000 </r>
       <r>    -9.0336     0.0000    32.0000 </r>
       <r>    -8.9910     0.0000    32.0000 </r>
       <r>    -8.9484     0.0000    32.0000 </r>
       <r>    -8.9058     0.0000    32.0000 </r>
       <r>    -8.8632     0.0000    32.0000 </r>
       <r>    -8.8206     0.0000    32.0000 </r>
       <r>    -8.7780     0.0003    32.0000 </r>
       <r>    -8.7354     0.0028    32.0001 </r>
       <r>    -8.6928     0.0186    32.0009 </r>
       <r>    -8.6502     0.0908    32.0048 </r>
       <r>    -8.6076     0.3262    32.0187 </r>
       <r>    -8.5650     0.8671    32.0556 </r>
       <r>    -8.5224     1.7387    32.1297 </r>
       <r>    -8.4798     2.7375    32.2463 </r>
       <r>    -8.4372     3.6038    32.3999 </r>
       <r>    -8.3946     4.2036    32.5789 </r>
       <r>    -8.3520     4.4297    32.7677 </r>
       <r>    -8.3094     4.3256    32.9519 </r>
       <r>    -8.2668     4.3528    33.1374 </r>
       <r>    -8.2242     4.9375    33.3477 </r>
       <r>    -8.1816     6.0172    33.6041 </r>
       <r>    -8.1390     7.7549    33.9344 </r>
       <r>    -8.0964    11.0560    34.4055 </r>
       <r>    -8.0538    16.4523    35.1064 </r>
       <r>    -8.0112    22.8330    36.0791 </r>
       <r>    -7.9686    27.9224    37.2687 </r>
       <r>    -7.9259    30.2220    38.5562 </r>
       <r>    -7.8833    30.3943    39.8511 </r>
       <r>    -7.8407    30.2030    41.1378 </r>
       <r>    -7.7981    30.6665    42.4442 </r>
       <r>    -7.7555    32.2195    43.8169 </r>
       <r>    -7.7129    34.8099    45.2998 </r>
       <r>    -7.6703    37.0300    46.8774 </r>
       <r>    -7.6277    37.7344    48.4850 </r>
       <r>    -7.5851    38.0558    50.1062 </r>
       <r>    -7.5425    39.5502    51.7912 </r>
       <r>    -7.4999    41.8953    53.5760 </r>
       <r>    -7.4573    43.8061    55.4423 </r>
       <r>    -7.4147    44.2280    57.3265 </r>
       <r>    -7.3721    41.9083    59.1119 </r>
       <r>    -7.3295    36.0654    60.6483 </r>
       <r>    -7.2869    28.1470    61.8475 </r>
       <r>    -7.2443    20.6955    62.7291 </r>
       <r>    -7.2017    14.7065    63.3557 </r>
       <r>    -7.1591    10.3668    63.7973 </r>
       <r>    -7.1165     8.9259    64.1776 </r>
       <r>    -7.0739    11.6285    64.6730 </r>
       <r>    -7.0313    17.7045    65.4272 </r>
       <r>    -6.9887    24.6979    66.4794 </r>
       <r>    -6.9461    30.5727    67.7819 </r>
       <r>    -6.9035    34.5411    69.2534 </r>
       <r>    -6.8609    36.4811    70.8076 </r>
       <r>    -6.8183    36.9657    72.3824 </r>
       <r>    -6.7757    37.0132    73.9593 </r>
       <r>    -6.7331    37.1959    75.5439 </r>
       <r>    -6.6905    37.6491    77.1478 </r>
       <r>    -6.6479    38.2238    78.7763 </r>
       <r>    -6.6053    38.4220    80.4131 </r>
       <r>    -6.5627    38.1731    82.0394 </r>
       <r>    -6.5201    38.2049    83.6670 </r>
       <r>    -6.4775    39.3138    85.3419 </r>
       <r>    -6.4349    42.1492    87.1375 </r>
       <r>    -6.3923    46.6188    89.1236 </r>
       <r>    -6.3497    50.3600    91.2690 </r>
       <r>    -6.3071    50.6537    93.4270 </r>
       <r>    -6.2645    48.7400    95.5034 </r>
       <r>    -6.2219    48.6420    97.5757 </r>
       <r>    -6.1793    51.8658    99.7853 </r>
       <r>    -6.1367    56.2175   102.1803 </r>
       <r>    -6.0940    59.7579   104.7261 </r>
       <r>    -6.0514    64.0271   107.4538 </r>
       <r>    -6.0088    71.0595   110.4811 </r>
       <r>    -5.9662    77.9096   113.8003 </r>
       <r>    -5.9236    78.5251   117.1456 </r>
       <r>    -5.8810    71.3002   120.1832 </r>
       <r>    -5.8384    60.6836   122.7684 </r>
       <r>    -5.7958    51.5855   124.9661 </r>
       <r>    -5.7532    45.4966   126.9044 </r>
       <r>    -5.7106    41.2058   128.6598 </r>
       <r>    -5.6680    36.9935   130.2358 </r>
       <r>    -5.6254    32.5781   131.6237 </r>
       <r>    -5.5828    29.0273   132.8604 </r>
       <r>    -5.5402    26.3989   133.9850 </r>
       <r>    -5.4976    23.2712   134.9764 </r>
       <r>    -5.4550    19.5715   135.8102 </r>
       <r>    -5.4124    17.5254   136.5568 </r>
       <r>    -5.3698    18.5713   137.3480 </r>
       <r>    -5.3272    21.0625   138.2453 </r>
       <r>    -5.2846    22.1600   139.1894 </r>
       <r>    -5.2420    21.3462   140.0988 </r>
       <r>    -5.1994    20.6399   140.9781 </r>
       <r>    -5.1568    21.1722   141.8801 </r>
       <r>    -5.1142    21.8470   142.8108 </r>
       <r>    -5.0716    22.1642   143.7551 </r>
       <r>    -5.0290    23.6751   144.7637 </r>
       <r>    -4.9864    27.2840   145.9260 </r>
       <r>    -4.9438    30.5550   147.2277 </r>
       <r>    -4.9012    29.5815   148.4880 </r>
       <r>    -4.8586    24.1572   149.5171 </r>
       <r>    -4.8160    18.9618   150.3250 </r>
       <r>    -4.7734    18.2933   151.1043 </r>
       <r>    -4.7308    21.3251   152.0128 </r>
       <r>    -4.6882    23.4491   153.0118 </r>
       <r>    -4.6456    21.6145   153.9326 </r>
       <r>    -4.6030    17.2298   154.6666 </r>
       <r>    -4.5604    13.7210   155.2512 </r>
       <r>    -4.5178    13.1190   155.8101 </r>
       <r>    -4.4752    15.4404   156.4679 </r>
       <r>    -4.4326    19.4291   157.2956 </r>
       <r>    -4.3900    23.2409   158.2857 </r>
       <r>    -4.3474    25.4657   159.3706 </r>
       <r>    -4.3048    25.8628   160.4724 </r>
       <r>    -4.2622    25.0589   161.5400 </r>
       <r>    -4.2195    24.1043   162.5669 </r>
       <r>    -4.1769    24.1008   163.5937 </r>
       <r>    -4.1343    25.3524   164.6737 </r>
       <r>    -4.0917    27.1611   165.8309 </r>
       <r>    -4.0491    28.7262   167.0547 </r>
       <r>    -4.0065    30.0318   168.3341 </r>
       <r>    -3.9639    32.1308   169.7029 </r>
       <r>    -3.9213    36.2852   171.2488 </r>
       <r>    -3.8787    42.8820   173.0756 </r>
       <r>    -3.8361    51.4282   175.2666 </r>
       <r>    -3.7935    60.3394   177.8372 </r>
       <r>    -3.7509    67.0565   180.6940 </r>
       <r>    -3.7083    70.2874   183.6884 </r>
       <r>    -3.6657    71.2129   186.7222 </r>
       <r>    -3.6231    71.7219   189.7777 </r>
       <r>    -3.5805    73.2950   192.9003 </r>
       <r>    -3.5379    76.9829   196.1799 </r>
       <r>    -3.4953    81.8727   199.6679 </r>
       <r>    -3.4527    84.1052   203.2510 </r>
       <r>    -3.4101    80.2011   206.6677 </r>
       <r>    -3.3675    71.4816   209.7130 </r>
       <r>    -3.3249    62.8222   212.3894 </r>
       <r>    -3.2823    57.3219   214.8314 </r>
       <r>    -3.2397    54.2342   217.1419 </r>
       <r>    -3.1971    51.3268   219.3285 </r>
       <r>    -3.1545    46.9258   221.3277 </r>
       <r>    -3.1119    40.6577   223.0598 </r>
       <r>    -3.0693    34.2888   224.5206 </r>
       <r>    -3.0267    30.3475   225.8135 </r>
       <r>    -2.9841    29.3855   227.0654 </r>
       <r>    -2.9415    29.9005   228.3392 </r>
       <r>    -2.8989    29.9340   229.6144 </r>
       <r>    -2.8563    28.7572   230.8396 </r>
       <r>    -2.8137    28.3627   232.0479 </r>
       <r>    -2.7711    31.5967   233.3940 </r>
       <r>    -2.7285    37.4571   234.9897 </r>
       <r>    -2.6859    41.0438   236.7383 </r>
       <r>    -2.6433    39.4248   238.4179 </r>
       <r>    -2.6007    34.5653   239.8905 </r>
       <r>    -2.5581    30.2119   241.1775 </r>
       <r>    -2.5155    28.8750   242.4077 </r>
       <r>    -2.4729    31.9113   243.7672 </r>
       <r>    -2.4303    40.0232   245.4723 </r>
       <r>    -2.3876    52.3382   247.7020 </r>
       <r>    -2.3450    65.5415   250.4942 </r>
       <r>    -2.3024    74.8199   253.6817 </r>
       <r>    -2.2598    76.4658   256.9393 </r>
       <r>    -2.2172    70.1978   259.9299 </r>
       <r>    -2.1746    59.9812   262.4853 </r>
       <r>    -2.1320    52.1823   264.7084 </r>
       <r>    -2.0894    49.8948   266.8340 </r>
       <r>    -2.0468    50.0397   268.9658 </r>
       <r>    -2.0042    48.6674   271.0391 </r>
       <r>    -1.9616    45.8701   272.9933 </r>
       <r>    -1.9190    43.7699   274.8580 </r>
       <r>    -1.8764    43.4442   276.7088 </r>
       <r>    -1.8338    44.8284   278.6186 </r>
       <r>    -1.7912    47.1038   280.6254 </r>
       <r>    -1.7486    48.7252   282.7012 </r>
       <r>    -1.7060    48.6470   284.7736 </r>
       <r>    -1.6634    47.6479   286.8036 </r>
       <r>    -1.6208    47.5000   288.8272 </r>
       <r>    -1.5782    49.5363   290.9375 </r>
       <r>    -1.5356    54.1536   293.2446 </r>
       <r>    -1.4930    59.6605   295.7863 </r>
       <r>    -1.4504    62.1682   298.4348 </r>
       <r>    -1.4078    59.2705   300.9598 </r>
       <r>    -1.3652    52.9005   303.2135 </r>
       <r>    -1.3226    46.7454   305.2050 </r>
       <r>    -1.2800    42.5859   307.0192 </r>
       <r>    -1.2374    40.4253   308.7415 </r>
       <r>    -1.1948    40.1087   310.4502 </r>
       <r>    -1.1522    41.1852   312.2048 </r>
       <r>    -1.1096    42.1244   313.9994 </r>
       <r>    -1.0670    40.7138   315.7339 </r>
       <r>    -1.0244    35.4345   317.2435 </r>
       <r>    -0.9818    26.9646   318.3922 </r>
       <r>    -0.9392    17.9548   319.1571 </r>
       <r>    -0.8966    10.6479   319.6108 </r>
       <r>    -0.8540     5.5786   319.8484 </r>
       <r>    -0.8114     2.4496   319.9528 </r>
       <r>    -0.7688     0.8442   319.9887 </r>
       <r>    -0.7262     0.2175   319.9980 </r>
       <r>    -0.6836     0.0407   319.9997 </r>
       <r>    -0.6410     0.0054   320.0000 </r>
       <r>    -0.5984     0.0005   320.0000 </r>
       <r>    -0.5557     0.0000   320.0000 </r>
       <r>    -0.5131     0.0000   320.0000 </r>
       <r>    -0.4705     0.0000   320.0000 </r>
       <r>    -0.4279     0.0000   320.0000 </r>
       <r>    -0.3853     0.0000   320.0000 </r>
       <r>    -0.3427     0.0000   320.0000 </r>
       <r>    -0.3001     0.0000   320.0000 </r>
       <r>    -0.2575     0.0000   320.0000 </r>
       <r>    -0.2149     0.0000   320.0000 </r>
       <r>    -0.1723     0.0000   320.0000 </r>
       <r>    -0.1297     0.0000   320.0000 </r>
       <r>    -0.0871     0.0000   320.0000 </r>
       <r>    -0.0445     0.0000   320.0000 </r>
       <r>    -0.0019     0.0000   320.0000 </r>
       <r>     0.0407     0.0000   320.0000 </r>
       <r>     0.0833     0.0000   320.0000 </r>
      </set>
     </set>
    </array>
   </total>
  </dos>
 </calculation>
 <structure name="finalpos" >
  <crystal>
   <varray name="basis" >
    <v>      12.40974246       0.00000000       0.00000000 </v>
    <v>      -6.20487123      10.74707641       0.00015870 </v>
    <v>       0.00000000       0.00054326      28.16332823 </v>
   </varray>
   <i name="volume">   3756.09944448 </i>
   <varray name="rec_basis" >
    <v>       0.08058185       0.04652428      -0.00000090 </v>
    <v>       0.00000000       0.09304856      -0.00000179 </v>
    <v>       0.00000000      -0.00000052       0.03550717 </v>
   </varray>
  </crystal>
  <varray name="positions" >
   <v>       0.00000000       0.00000000       0.50000000 </v>
   <v>       0.25000000       0.00000000       0.50000000 </v>
   <v>       0.50000000       0.00000000       0.50000000 </v>
   <v>       0.75000000       0.00000000       0.50000000 </v>
   <v>       0.00000000       0.25000000       0.50000000 </v>
   <v>       0.25000000       0.25000000       0.50000000 </v>
   <v>       0.50000000       0.25000000       0.50000000 </v>
   <v>       0.75000000       0.25000000       0.50000000 </v>
   <v>       0.00000000       0.50000000       0.50000000 </v>
   <v>       0.25000000       0.50000000       0.50000000 </v>
   <v>       0.50000000       0.50000000       0.50000000 </v>
   <v>       0.75000000       0.50000000       0.50000000 </v>
   <v>       0.00000000       0.75000000       0.50000000 </v>
   <v>       0.25000000       0.75000000       0.50000000 </v>
   <v>       0.50000000       0.75000000       0.50000000 </v>
   <v>       0.75000000       0.75000000       0.50000000 </v>
   <v>       0.16666517       0.08333033       0.53996077 </v>
   <v>       0.41666517       0.08333033       0.53996077 </v>
   <v>       0.66666517       0.08333033       0.53996077 </v>
   <v>       0.91666517       0.08333033       0.53996077 </v>
   <v>       0.16666517       0.33333033       0.53996077 </v>
   <v>       0.41666517       0.33333033       0.53996077 </v>
   <v>       0.66666517       0.33333033       0.53996077 </v>
   <v>       0.91666517       0.33333033       0.53996077 </v>
   <v>       0.16666517       0.58333033       0.53996077 </v>
   <v>       0.41666517       0.58333033       0.53996077 </v>
   <v>       0.66666517       0.58333033       0.53996077 </v>
   <v>       0.91666517       0.58333033       0.53996077 </v>
   <v>       0.16666517       0.83333033       0.53996077 </v>
   <v>       0.41666517       0.83333033       0.53996077 </v>
   <v>       0.66666517       0.83333033       0.53996077 </v>
   <v>       0.91666517       0.83333033       0.53996077 </v>
   <v>       0.08333483       0.16666967       0.46003923 </v>
   <v>       0.33333483       0.16666967       0.46003923 </v>
   <v>       0.58333483       0.16666967       0.46003923 </v>
   <v>       0.83333483       0.16666967       0.46003923 </v>
   <v>       0.08333483       0.41666967       0.46003923 </v>
   <v>       0.33333483       0.41666967       0.46003923 </v>
   <v>       0.58333483       0.41666967       0.46003923 </v>
   <v>       0.83333483       0.41666967       0.46003923 </v>
   <v>       0.08333483       0.66666967       0.46003923 </v>
   <v>       0.33333483       0.66666967       0.46003923 </v>
   <v>       0.58333483       0.66666967       0.46003923 </v>
   <v>       0.83333483       0.66666967       0.46003923 </v>
   <v>       0.08333483       0.91666967       0.46003923 </v>
   <v>       0.33333483       0.91666967       0.46003923 </v>
   <v>       0.58333483       0.91666967       0.46003923 </v>
   <v>       0.83333483       0.91666967       0.46003923 </v>
  </varray>
 </structure>
</modeling>
